default_name
 45789
  25.7092782  41.3728956  29.8845381  25.9111814  40.9873767  28.8851832
  26.5709488  41.6751841  28.3562917  24.9742691  40.8894569  28.3368165
  26.5781814  39.6303767  28.9491832  26.8291814  39.0933767  30.0361832
  26.8901814  39.0233767  27.8541832  26.6706345  39.4153922  26.9496267
  27.5331814  37.7163767  27.9031832  28.0020443  37.5718219  28.8765128
  26.5051814  36.6053767  27.6861832  25.7172023  36.7491401  28.4254533
  26.0934495  36.7407390  26.6860562  27.0701814  35.2003767  27.8151832
  27.8710914  35.0748412  27.0865647  27.4719691  35.0768791  28.8208755
  26.0261814  34.1293767  27.5761832  24.8431814  34.4253767  27.4111832
  26.4601814  32.8753767  27.5541832  25.8070575  32.1208352  27.3986271
  27.4415912  32.6813681  27.6930960  28.6361814  37.6183767  26.8561832
  28.4681814  36.9613767  25.8301832  29.7661814  38.2683767  27.1221832
  29.8634956  38.7817343  27.9865288  30.8651814  38.3083767  26.1681832
  30.6324537  37.6602284  25.3232922  31.1031814  39.7273767  25.6451832
  32.0040352  39.7427314  25.0317291  30.2497189  40.0416431  25.0444016
  31.3381814  40.9813767  26.9241832  32.1191814  37.7643767  26.8341832
  32.1941814  37.6403767  28.0571832  33.1061814  37.4363767  26.0051832
  32.9524518  37.5105335  25.0097097  34.3921814  36.9403767  26.4691832
  34.4028295  36.9358444  27.5591214  34.6621814  35.5203767  25.9721832
  33.9799663  34.8269083  26.4638978  34.5088099  35.4769615  24.8939010
  36.3481814  34.9623767  26.3081832  35.5061814  37.8613767  25.9951832
  35.4881814  38.3393767  24.8571832  36.4521814  38.1253767  26.8971832
  36.2683180  37.8671653  27.8561516  37.6861814  38.8573767  26.5991832
  38.0842673  39.2972281  27.5135997  38.7531814  37.9333767  25.9941832
  38.7551384  37.0013834  26.5594131  38.4881814  37.6353767  24.5271832
  38.4865363  38.5669122  23.9611986  39.2684308  36.9785576  24.1426073
  37.5193014  37.1466935  24.4244172  40.0391814  38.5533767  26.1091832
  40.7073185  37.9768165  25.7313320  37.4401814  40.0663767  25.7001832
  38.2881814  40.4333767  24.8831832  36.2851814  40.7093767  25.8541832
  35.5179653  40.2883786  26.3584047  36.0791814  42.0163767  25.2511832
  36.9376278  42.6526592  25.4663887  35.9171814  41.9123767  23.7411832
  35.7917820  42.9155320  23.3336862  36.8173492  41.4611423  23.3238279
  34.7921814  41.1213767  23.4021832  34.7122677  41.0714991  22.4468163
  34.8591814  42.6853767  25.8651832  34.1391814  42.0963767  26.6741832
  34.6461814  43.9373767  25.4571832  35.2581061  44.3604346  24.7740511
  33.5731814  44.7453767  26.0161832  33.4496891  44.5627526  27.0836555
  33.8621814  46.2353767  25.7821832  33.8944252  46.4260352  24.7094716
  32.7791814  47.0943767  26.4171832  32.7466441  46.9045980  27.4900420
  33.0001628  48.1471848  26.2415042  31.8136110  46.8477377  25.9756606
  35.2411814  46.6063767  26.3361832  35.1711354  46.5781223  27.4235635
  35.9417183  45.8429411  25.9977845  35.7291814  47.9653767  25.8991832
  35.0293468  48.7294285  26.2376447  36.7113518  48.1557353  26.3318540
  35.7999275  47.9942480  24.8118648  32.2481814  44.3383767  25.3921832
  32.1951814  43.8923767  24.2391832  31.1671814  44.4863767  26.1541832
  31.2698324  44.6896452  27.1381771  29.8251814  44.3093767  25.6231832
  29.7750671  44.7525328  24.6285976  29.4381814  42.8293767  25.5201832
  28.4109141  42.7457445  25.1654623  30.1057230  42.3265887  24.8204028
  29.5251814  41.8833767  27.0451832  28.8271814  45.0503767  26.4981832
  29.1061814  45.3743767  27.6551832  27.6601814  45.3243767  25.9221832
  27.5516417  45.0543873  24.9550099  26.5681814  46.0483767  26.5651832
  25.7775059  46.2328363  25.8379238  25.9821814  45.2463767  27.7331832
  25.6497288  44.2776713  27.3601090  26.7608124  45.0991563  28.4816215
  24.8871814  45.9273767  28.3191832  24.5384217  45.4064757  29.0462517
  26.9831814  47.4313767  27.0501832  26.2681814  48.0413767  27.8531832
  28.1191814  47.9433767  26.5851832  28.7233830  47.3991458  25.9861402
  28.5501814  49.2763767  26.9701832  28.3569655  49.4382991  28.0306302
  30.0491814  49.4393767  26.7161832  30.4949710  48.6369218  27.3039221
  30.2066807  49.2429409  25.6556611  30.7051814  50.7713767  27.0911832
  30.2803262  51.5528965  26.4612421  30.4771814  51.1173767  28.5461832
  30.9022020  50.3364905  29.1767964  30.9577266  52.0689523  28.7735178
  29.4071085  51.1963317  28.7380440  32.1921814  50.7083767  26.8051832
  32.3507729  50.5143848  25.7443744  32.6548600  51.6581409  27.0734697
  32.6418890  49.9072296  27.3917200  27.7531814  50.3293767  26.2051832
  27.0521814  50.0323767  25.2341832  27.8381814  51.5713767  26.6771832
  28.3194876  51.7326443  27.5503592  27.2051814  52.7063767  26.0171832
  26.6982607  52.3763245  25.1104329  26.1691814  53.3473767  26.9531832
  25.3355873  52.6487859  27.0252318  26.6375513  53.4554821  27.9314688
  25.6601814  54.6923767  26.4871832  26.2811814  55.8663767  26.8891832
  27.1465981  55.8031343  27.5488450  25.8221814  57.0983767  26.4691832
  26.3214734  58.0123703  26.7907809  24.7251814  57.1683767  25.6401832
  24.2661814  58.3963767  25.2211832  24.7834877  59.1278285  25.5661065
  24.0881814  56.0183767  25.2281832  23.2202213  56.0735198  24.5711405
  24.5561814  54.7893767  25.6531832  24.0560656  53.8753367  25.3330032
  28.2071814  53.7543767  25.5571832  28.1991814  54.1403767  24.3841832
  29.0821814  54.2253767  26.4431832  29.0892396  53.8635261  27.3861114
  30.0091814  55.3043767  26.1081832  30.0807711  55.3988719  25.0246497
  29.5341814  56.6373767  26.6841832  28.5772146  56.8691359  26.2166348
  29.3895208  56.4938671  27.7549672  30.4991814  57.7833767  26.4541832
  31.3593613  57.6510580  27.1104477  30.8290750  57.7649491  25.4154663
  29.8751814  59.1343767  26.7401832  28.7011814  59.2253767  27.0991832
  30.6581814  60.1923767  26.5781832  30.2943328  61.1178620  26.7547973
  31.6147542  60.0677882  26.2789384  31.3981814  54.9583767  26.6251832
  31.5411814  54.4193767  27.7261832  32.4101814  55.2693767  25.8241832
  32.2019582  55.6087280  24.8959681  33.8041814  55.1163767  26.2051832
  33.9083330  55.2524253  27.2816321  34.3141814  53.7223767  25.8371832
  33.4759015  53.0803346  26.1076790  34.4512676  53.7038339  24.7559970
  35.5861814  53.2153767  26.5211832  35.4761815  53.3120452  27.6013017
  35.8211814  51.7583767  26.1651832  35.9317474  51.6609703  25.0851897
  36.7282218  51.4056153  26.6560375  34.9725378  51.1609673  26.4983594
  36.7961814  54.0513767  26.1511832  36.6320038  55.0845372  26.4573277
  37.6781774  53.6588075  26.6572205  36.9492761  54.0125080  25.0726887
  34.6351814  56.1823767  25.5041832  34.5391814  56.3643767  24.2901832
  35.4511814  56.8993767  26.2711832  35.5418000  56.7566667  27.2669349
  36.2151814  57.9733767  25.6561832  36.6887941  57.6093486  24.7444410
  35.3071814  59.1553767  25.2981832  35.9551984  59.9603538  24.9515061
  34.6664155  58.8274173  24.4796712  34.4491814  59.6553767  26.4411832
  33.6961652  58.9050935  26.6823107  35.0987487  59.8075578  27.3031590
  33.7801814  60.9783767  26.1281832  34.2911814  61.7153767  25.2581832
  32.7401814  61.2803767  26.7491832  32.3855041  62.1357797  26.4968563
  37.3311814  58.4503767  26.5691832  37.0981814  58.7533767  27.7391832
  32.4699174  60.6071692  27.3778548  33.8075960  62.5353904  25.1313140
  35.0778106  61.3361191  24.8603199  38.5361814  58.5333767  26.0151832
  38.7419175  58.0325309  25.1625839  39.5981814  59.3123767  26.6301832
  39.6142265  59.1280362  27.7043621  40.9551814  58.9273767  26.0491832
  40.9585813  57.8554237  25.8516878  41.1037563  59.4688920  25.1149526
  42.1001814  59.2503767  26.9821832  41.9941814  60.1403767  27.8231832
  43.2041814  58.5293767  26.8381832  43.9993170  58.7040785  27.4359611
  43.2445968  57.8089920  26.1314207  39.3041814  60.7873767  26.3881832
  38.2951814  61.1283767  25.7631832  40.1741814  61.6653767  26.8821832
  40.9880257  61.3633956  27.3984816  39.9481814  63.0953767  26.7241832
  39.7597943  63.3232880  25.6750569  38.7391814  63.5483767  27.5481832
  38.0300793  62.7209990  27.5213584  39.0768200  63.7037601  28.5728569
  38.0671814  64.8033767  27.0441832  38.7021814  66.0343767  27.1171832
  39.7047571  66.0844720  27.5419558  38.0861814  67.1843767  26.6631832
  38.5991960  68.1444476  26.7195896  36.8141814  67.1123767  26.1361832
  36.1951814  68.2533767  25.6851832  36.7377758  69.0390017  25.7851044
  36.1601814  65.9023767  26.0591832  35.1548432  65.8449496  25.6419329
  36.7851814  64.7583767  26.5141832  36.2713709  63.7985720  26.4605761
  41.1931814  63.8553767  27.1511832  41.8291814  63.4993767  28.1471832
  41.5291814  64.8983767  26.3991832  41.0192846  65.0742613  25.5452691
  42.6461814  65.7763767  26.7311832  42.4420011  66.2837042  27.6740662
  43.9481814  64.9833767  26.8741832  44.7969711  65.6653902  26.8240549
  43.9551969  64.4652771  27.8331533  44.2291814  63.7093767  25.6331832
  42.8081814  66.8583767  25.6711832  42.7561814  66.5763767  24.4731832
  43.0011814  68.0813767  26.0321832  43.0490153  68.3464079  27.0056151
  43.1561814  69.1193767  25.0271832  43.0807109  68.6778729  24.0334632
  42.3729410  69.8669977  25.1524746  44.1313264  69.5929940  25.1406682
  29.8470365  24.5628637  32.4531943  29.6591814  24.7823767  31.4021832
  28.8941616  25.5547468  31.3228895  29.3164923  23.8791112  30.8974312
  30.9151814  25.2733767  30.7151832  31.9811814  25.3843767  31.3361832
  30.8751814  25.5813767  29.4631832  30.0329186  25.4708142  28.9168604
  32.0781814  26.0553767  28.7901832  32.7862492  26.4384246  29.5250393
  32.7431814  24.9153767  28.0191832  32.6575132  23.9882502  28.5859253
  32.2706253  24.7900689  27.0449713  34.2021814  25.1273767  27.7631832
  34.7641814  26.3803767  27.6391832  34.2513206  27.2478435  27.7068218
  36.0611814  26.2603767  27.4211832  36.6872269  27.1434143  27.2930796
  36.3621814  24.9743767  27.4011832  37.2807510  24.5810898  27.2540262
  35.2181814  24.2453767  27.6141832  35.2618600  23.1564580  27.6353819
  31.7301814  27.2033767  27.8521832  30.9161814  27.0453767  26.9431832
  32.3441814  28.3633767  28.0851832  32.9770415  28.4516869  28.8673524
  32.0831814  29.5443767  27.2701832  31.3414314  29.3114392  26.5062157
  31.5471814  30.6823767  28.1411832  30.6363381  30.2693919  28.5746658
  32.2742584  30.8665493  28.9320937  31.2221814  31.9993767  27.4301832
  30.9416625  31.7868933  26.3985530  30.0761814  32.7093767  28.1301832
  30.3561502  32.9226204  29.1618049  29.8569285  33.6436056  27.6132254
  29.1919612  32.0721018  28.1185326  32.4381814  32.9083767  27.3641832
  33.2371329  32.4081279  26.8168926  32.1731010  33.8341824  26.8535782
  32.7777602  33.1357516  28.3746711  33.3431814  29.9813767  26.5341832
  33.3101814  30.2103767  25.3211832  34.4551814  30.1003767  27.2561832
  34.4330812  29.8948869  28.2448109  35.7041814  30.5693767  26.6771832
  35.6587043  30.4688668  25.5927807  35.9661814  32.0393767  27.0221832
  35.0669853  32.4772535  27.4555532  36.7837189  32.1044824  27.7401621
  36.4171814  33.0603767  25.6031832  36.8481814  29.6963767  27.1721832
  36.7521814  29.0383767  28.2111832  37.9401814  29.7093767  26.4161832
  37.9895405  30.3484801  25.6356642  39.0701814  28.8413767  26.6641832
  38.6947254  27.9072673  27.0820008  39.5597115  28.6416281  25.7109989
  40.0801814  29.4383767  27.6211832  39.7631814  30.2833767  28.4611832
  41.3211814  28.9843767  27.4821832  41.5281408  28.3357650  26.7361470
  42.3911814  29.3473767  28.3961832  41.9821587  29.8803312  29.2545299
  43.1071814  28.0923767  28.8961832  43.5943899  27.6085516  28.0496370
  43.8595826  28.3883596  29.6272006  42.1961814  27.1883767  29.4961832
  42.6703433  26.4111624  29.8006632  43.3891814  30.2893767  27.7271832
  43.3841814  30.4903767  26.5101832  44.2561814  30.8723767  28.5521832
  44.1287139  30.7402328  29.5453545  45.3311814  31.7533767  28.1031832
  45.8636803  32.1498908  28.9676603  46.3271814  30.9953767  27.2201832
  46.4112838  29.9601154  27.5507282  45.9966551  31.0189730  26.1817730
  47.7101814  31.5653767  27.2421832  48.8371814  30.7893767  27.0821832
  48.8294114  29.7897215  26.9382080  49.9111814  31.5563767  27.1471832
  50.9075587  31.1270177  27.0423877  49.5211814  32.8023767  27.3441832
  50.1248562  33.6070656  27.4344738  48.1491814  32.8353767  27.4081832
  47.6336770  33.7823259  27.5683197  44.8031814  32.9783767  27.3671832
  45.4871814  33.5283767  26.4981832  43.5921814  33.4153767  27.6951832
  43.0182688  32.9029884  28.3495392  43.0431814  34.6183767  27.0921832
  43.1896234  34.5911295  26.0124093  41.5471814  34.7223767  27.3791832
  41.4995436  35.0166379  28.4276297  41.1229071  35.5133233  26.7607215
  40.7501814  33.4333767  27.1751832  41.0549037  32.7046737  27.9263403
  39.2651814  33.7033767  27.3071832  38.9596045  34.4316931  26.5559996
  38.7121574  32.7758050  27.1592780  39.0539220  34.0971532  28.3013712
  41.0681814  32.8143767  25.8321832  42.1319113  32.5820084  25.7813604
  40.4903940  31.8985351  25.7076954  40.8117217  33.5158902  25.0383279
  43.7621814  35.8533767  27.6201832  44.1511814  35.9233767  28.7881832
  43.9371814  36.8363767  26.7411832  43.6009102  36.7182967  25.7961551
  44.6451814  38.0663767  27.0741832  44.6810082  38.2258997  28.1518510
  46.0871814  38.0583767  26.5291832  46.0579541  37.9093712  25.4498119
  46.7801814  39.3763767  26.8401832  46.8102057  39.5258693  27.9194660
  47.7971570  39.3540121  26.4485700  46.2304434  40.1949852  26.3756727
  46.8681814  36.8913767  27.1101832  46.3810388  35.9554165  26.8367371
  47.8839890  36.9006525  26.7150268  46.9004901  36.9798270  28.1961084
  43.8691814  39.2493767  26.5151832  43.3631814  39.2003767  25.3901832
  43.7741814  40.3093767  27.3101832  44.0879649  40.2239511  28.2663953
  43.2111814  41.5793767  26.8801832  43.2692206  41.6496279  25.7939993
  41.7471814  41.7153767  27.3011832  41.2151403  40.8510896  26.9036415
  41.7204940  41.6883135  28.3905203  41.0811814  42.9893767  26.8101832
  41.6559283  43.8473841  27.1588808  41.0833465  42.9699212  25.7203593
  39.6431814  43.1103767  27.2661832  39.2671814  42.4123767  28.2291832
  38.8891814  43.9013767  26.6621832  37.9949721  43.9100778  27.0107419
  44.0311814  42.7093767  27.4821832  44.6131814  42.5593767  28.5601832
  39.3293978  44.3673920  25.9476776  38.3410698  42.5432960  28.4472436
  39.9675076  41.8659652  28.5923565  44.0771814  43.8393767  26.7831832
  43.6056284  43.8879116  25.8913415  44.8231814  45.0043767  27.2331832
  44.7170384  45.1173149  28.3121075  46.3091814  44.8663767  26.9001832
  46.4322939  44.7615804  25.8222402  46.8425044  45.7535171  27.2417219
  46.7135333  43.9855206  27.3988728  44.2491814  46.2543767  26.5861832
  44.4611814  46.4933767  25.3941832  43.5371814  47.0503767  27.3751832
  43.3901969  46.7766326  28.3362030  42.9191814  48.2823767  26.9061832
  42.9999718  48.3444210  25.8209539  41.4391814  48.3233767  27.2891832
  40.9753220  47.6172845  26.6004398  41.3469044  47.9494443  28.3088692
  40.7391814  49.6773767  27.1781832  41.1097574  50.3321394  27.9668910
  41.0081814  50.3063767  25.8361832  40.6374418  49.6523621  25.0469329
  40.5009882  51.2693985  25.7774903  42.0810467  50.4531754  25.7116420
  39.2471814  49.5153767  27.4061832  39.0735928  49.1044195  28.4007085
  38.7590837  50.4865695  27.3246569  38.8360058  48.8386502  26.6571339
  43.6601814  49.4713767  27.4981832  43.7711814  49.5933767  28.7221832
  44.1631814  50.3433767  26.6281832  44.0194312  50.1801527  25.6418804
  44.9371814  51.5093767  27.0291832  45.0917730  51.4904523  28.1079985
  46.3021814  51.5263767  26.3401832  46.1295260  51.5033946  25.2641901
  46.7614494  52.4762933  26.6137365  47.2221814  50.3933767  26.7261832
  46.9421814  49.0903767  26.3501832  46.0390202  48.8910409  25.7734123
  47.7831814  48.0543767  26.6931832  47.5461979  47.0328934  26.3956726
  48.9261814  48.3133767  27.4121832  49.7681814  47.2813767  27.7541832
  49.4613893  46.4274009  27.4408087  49.2311814  49.6013767  27.7931832
  50.1356237  49.8086651  28.3651238  48.3831814  50.6323767  27.4461832
  48.6209096  51.6552888  27.7381355  44.1751814  52.7793767  26.6811832
  43.7861814  52.9803767  25.5261832  43.9691814  53.6293767  27.6811832
  44.1799593  53.3195975  28.6191111  43.4361814  54.9723767  27.5011832
  43.2175469  55.1371227  26.4461206  42.1501814  55.1703767  28.3031832
  42.3933915  54.6830587  29.2473597  42.0440322  56.2430143  28.4652974
  40.8361814  54.6043767  27.7611832  40.1570266  54.4217842  28.5939554
  40.2001814  55.5813767  26.7971832  40.8786017  55.7641214  25.9638470
  39.2662532  55.1646630  26.4200512  39.9967641  56.5203320  27.3120470
  41.0431814  53.2643767  27.0951832  41.4504805  52.5577284  27.8182704
  40.0890338  52.8922533  26.7220507  41.7396043  53.3748921  26.2639910
  44.5061814  55.9523767  27.9591832  44.5591814  56.3063767  29.1411832
  45.3531814  56.3903767  27.0291832  45.1908237  56.1905984  26.0525420
  46.5681814  57.1093767  27.3951832  46.6091283  57.3221386  28.4634317
  47.8221814  56.3053767  27.0051832  47.8484452  56.1918578  25.9214291
  49.0801814  57.0243767  27.4701832  49.0548548  57.1378620  28.5539639
  49.9574536  56.4428995  27.1866726  49.1305936  58.0081074  27.0034560
  47.7651814  54.9003767  27.5821832  46.8848193  54.3848580  27.1983797
  48.6616269  54.3517370  27.2932549  47.7081596  54.9555253  28.6692931
  46.6051814  58.4873767  26.7511832  47.0451814  58.6403767  25.6061832
  46.1491814  59.4983767  27.4841832  45.5635526  59.3311680  28.2898999
  46.4501814  60.8753767  27.1241832  46.4731234  60.9760614  26.0390862
  45.3871814  61.8193767  27.6791832  45.0423520  61.4512230  28.6454413
  45.8130018  62.8152977  27.8013241  43.9121814  61.9843767  26.6531832
  47.8231814  61.2473767  27.6641832  47.9561814  61.7473767  28.7841832
  48.8491814  61.0013767  26.8561832  48.6760623  60.7673708  25.8890377
  50.2191814  61.0563767  27.3131832  50.3119899  60.4081620  28.1845634
  50.8584612  60.6827310  26.5133022  50.6661814  62.4553767  27.6891832
  49.8741814  63.3473767  27.9941832  51.9861814  62.6363767  27.6581832
  52.5755077  61.8846411  27.3300255  52.6241814  63.8583767  28.1311832
  52.4658272  63.9727148  29.2035403  54.1281814  63.7973767  27.8631832
  54.2597911  63.6982813  26.7857054  54.5533582  64.7445832  28.1950334
  54.8341814  62.6523767  28.5661832  54.5964506  62.6876690  29.6293573
  54.4626392  61.7195258  28.1421020  56.3371814  62.6823767  28.3701832
  56.8591814  63.7233767  27.9221832  56.9961814  61.6633767  28.6641832
  57.9370590  61.7636170  28.5033094  52.0321814  65.1023767  27.4841832
  51.8311814  65.1453767  26.2661832  56.4510259  60.9481656  28.9999770
  57.8116019  63.6512059  27.8218868  56.2218407  64.4217114  27.7577363
  51.7461814  66.1173767  28.2961832  51.8555918  65.9829214  29.2911960
  51.2491814  67.4033767  27.8231832  51.4388444  67.4925272  26.7535200
  49.7471814  67.5443767  28.0661832  49.5840834  67.4214075  29.1368731
  49.4695926  68.5561880  27.7707473  48.8941814  66.5433767  27.3061832
  49.1753845  66.5780167  26.2536502  49.0936145  65.5477262  27.7024261
  47.4131814  66.8563767  27.4451832  46.8431092  66.1485239  26.8434681
  47.1262778  66.7562912  28.4919729  47.0961814  68.2083767  27.0011832
  47.8519363  68.7481532  26.6042258  45.8961814  68.7653767  27.0831832
  44.8631814  68.1143767  27.5921832  44.9817778  67.1696447  27.9291049
  43.9606676  68.5650803  27.6415268  45.7271814  70.0093767  26.6441832
  46.5100430  70.5149490  26.2547932  44.8167563  70.4428027  26.7022080
  52.0081814  68.5063767  28.5441832  52.5201814  68.2913767  29.6481832
  52.0861814  69.6683767  27.9261832  51.7044037  69.7731577  26.9970082
  52.7111814  70.8183767  28.5451832  52.0953999  71.7005862  28.3702007
  52.8011160  70.6455988  29.6176378  54.0951814  71.0583767  27.9651832
  54.3511814  70.7603767  26.8001832  54.9691814  71.5963767  28.8121832
  54.6842934  71.7311117  29.7717584  56.3031814  72.0313767  28.4201832
  56.4061386  71.9602685  27.3373893  56.5541814  73.4813767  28.8411832
  56.5007040  73.5865146  29.9247815  57.5427962  73.7836556  28.4956860
  55.5761814  74.4683767  28.2641832  54.2331814  74.4133767  28.5931832
  53.8859545  73.6379811  29.2760411  53.3371814  75.3233767  28.0691832
  52.2805894  75.2620174  28.3298536  53.7791814  76.3083767  27.2171832
  53.0749693  77.0305269  26.8040435  55.1141814  76.3813767  26.8861832
  55.4668783  77.1598040  26.2096065  56.0061814  75.4673767  27.4121832
  57.0639473  75.5288649  27.1563504  57.3251814  71.1083767  29.0651832
  57.2931814  70.8953767  30.2811832  58.2261814  70.5613767  28.2521832
  58.1811907  70.7709540  27.2651915  59.2541814  69.6403767  28.7161832
  59.2965170  69.6609136  29.8051667  58.9551814  68.2083767  28.2651832
  58.9597608  68.1444716  27.1770681  59.7024915  67.5269819  28.6717896
  57.6191814  67.7003767  28.7191832  56.4551814  68.1793767  28.1481832
  56.5216767  68.9304542  27.3610613  55.2271814  67.7223767  28.5591832
  54.3180575  68.1125652  28.1016381  55.1451814  66.7713767  29.5491832
  54.1714927  66.4084084  29.8782489  56.2951814  66.2773767  30.1251832
  56.2338274  65.5206510  30.9072970  57.5261814  66.7423767  29.7101832
  58.4372517  66.3536658  30.1651057  60.6021814  70.0923767  28.1811832
  60.7541814  70.3003767  26.9731832  61.5801814  70.2273767  29.0771832
  61.3924958  70.0095521  30.0453907  62.8991814  70.7383767  28.7271832
  62.9708945  70.8580686  27.6461511  63.1481814  72.0943767  29.3861832
  63.2630011  71.9245040  30.4567246  64.0852890  72.4707702  28.9759915
  62.0531814  73.1083767  29.1521832  60.8671814  73.0523767  29.8641832
  60.7337770  72.2575157  30.5980078  59.8671814  73.9753767  29.6601832
  58.9378082  73.9144785  30.2264505  60.0451814  74.9783767  28.7371832
  59.0491814  75.9033767  28.5311832  58.2781190  75.7535471  29.0831012
  61.2131814  75.0603767  28.0191832  61.3548512  75.8545643  27.2861783
  62.2111814  74.1293767  28.2301832  63.1420635  74.1910399  27.6664844
  63.9911814  69.7513767  29.1211832  65.0541814  70.1533767  29.6021832
  63.7431814  68.4613767  28.9251832  62.8445846  68.1719274  28.5662372
  64.7221814  67.4313767  29.2491832  64.9168206  67.4258674  30.3216497
  64.2261814  66.0353767  28.8321832  64.1030358  66.0131228  27.7493904
  65.2231814  64.9643767  29.2511832  65.3465067  64.9857119  30.3339737
  64.8540993  63.9848228  28.9472889  66.1839502  65.1545165  28.7727788
  62.9581814  65.7713767  29.4441832  62.6516227  64.9001795  29.1821954
  66.0561814  67.7113767  28.5651832  66.0991814  68.0483767  27.3821832
  67.1531814  67.5933767  29.2341832  67.1550219  67.3183780  30.2060225
  68.4281814  67.8583767  28.5911832  68.2597929  68.1415557  27.5521665
  68.9359002  68.6708742  29.1109620  69.0471152  66.9618685  28.6271567
  25.7585713  39.2187429  29.8137412  25.8751814  38.6943767  30.7621832
  25.8721098  37.6187127  30.5860133  25.0511370  38.9556444  31.4261027
  27.1771814  39.0703767  31.4361832  27.9561814  39.8773767  30.9131832
  27.4791814  38.5423767  32.5741832  27.2912759  39.0169978  33.4456909
  28.1511814  37.2493767  32.6221832  28.6242790  37.1148017  33.5948945
  27.1471814  36.1163767  32.4061832  26.3571933  36.2431905  33.1464104
  26.7314935  36.2431965  31.4065731  27.7421814  34.7233767  32.5341832
  28.5448872  34.6142674  31.8048963  28.1474669  34.6093657  33.5395921
  26.7211814  33.6303767  32.2971832  25.5311814  33.9013767  32.1341832
  27.1821814  32.3863767  32.2731832  26.5452078  31.6179166  32.1187966
  28.1679358  32.2136577  32.4094100  29.2531814  37.1763767  31.5731832
  29.0981814  36.5153767  30.5471832  30.3691814  37.8493767  31.8371832
  30.4569282  38.3639375  32.7018374  31.4661814  37.9133767  30.8811832
  31.2463801  37.2610036  30.0360821  31.6721814  39.3373767  30.3591832
  32.5712887  39.3728861  29.7440049  30.8109116  39.6335392  29.7603491
  31.8831814  40.5963767  31.6381832  32.7321814  37.3963767  31.5451832
  32.8131814  37.2743767  32.7681832  33.7251814  37.0903767  30.7151832
  33.5679615  37.1619387  29.7200650  35.0221814  36.6223767  31.1761832
  35.0350543  36.6171592  32.2660943  35.3221814  35.2083767  30.6771832
  34.6556979  34.4998965  31.1690721  35.1683756  35.1627261  29.5990552
  37.0201814  34.6873767  31.0101832  36.1151814  37.5673767  30.7011832
  36.0851814  38.0453767  29.5631832  37.0571814  37.8503767  31.6011832
  36.8813177  37.5866905  32.5601622  38.2751814  38.6093767  31.3011832
  38.6660979  39.0577627  32.2145469  39.3601814  37.7093767  30.6931832
  39.3834792  36.7774273  31.2580086  39.0991814  37.4063767  29.2271832
  39.0762040  38.3378755  28.6616023  39.8928580  36.7668685  28.8409115
  38.1409961  36.8967335  29.1259642  40.6331814  38.3563767  30.8071832
  41.3127579  37.7946830  30.4273461  38.0011814  39.8133767  30.4031832
  38.8391814  40.1993767  29.5841832  36.8321814  40.4313767  30.5591832
  36.0751683  39.9929357  31.0639604  36.5961814  41.7343767  29.9571832
  37.4405787  42.3896713  30.1709149  36.4341814  41.6263767  28.4471832
  36.2866033  42.6264587  28.0395608  37.3432323  41.1944846  28.0286195
  35.3261814  40.8113767  28.1101832  35.2459340  40.7594602  27.1549529
  35.3641814  42.3763767  30.5731832  34.6581814  41.7713767  31.3831832
  35.1231814  43.6233767  30.1661832  35.7236558  44.0592546  29.4809531
  34.0341814  44.4083767  30.7281832  33.9187356  44.2232901  31.7961318
  34.2911814  45.9033767  30.4931832  34.3165573  46.0949548  29.4204510
  33.1911814  46.7383767  31.1311832  33.1654931  46.5476717  32.2040636
  33.3886398  47.7958093  30.9552647  32.2301329  46.4707824  30.6920040
  35.6621814  46.3043767  31.0451832  35.5944150  46.2741882  32.1326560
  36.3789005  45.5567248  30.7054335  36.1191814  47.6733767  30.6081832
  35.4031508  48.4216602  30.9479948  37.0975580  47.8852283  31.0394571
  36.1876341  47.7041973  29.5207715  32.7171814  43.9723767  30.1051832
  32.6721814  43.5253767  28.9521832  31.6341814  44.0973767  30.8701832
  31.7336788  44.3032134  31.8539671  30.2961814  43.8913767  30.3411832
  30.2354541  44.3336848  29.3468115  29.9401814  42.4033767  30.2381832
  28.9139996  42.2982983  29.8860343  30.6163839  41.9152110  29.5363681
  30.0511814  41.4593767  31.7621832  29.2831814  44.6103767  31.2181832
  29.5571814  44.9403767  32.3741832  28.1091814  44.8593767  30.6431832
  28.0046417  44.5884120  29.6758420  27.0031814  45.5583767  31.2891832
  26.2072279  45.7255543  30.5635049  26.4371814  44.7443767  32.4581832
  26.1255254  43.7684501  32.0859775  27.2202495  44.6146207  33.2052225
  25.3281814  45.4013767  33.0461832  24.9923520  44.8731188  33.7740307
  27.3891814  46.9503767  31.7741832  26.6621814  47.5453767  32.5781832
  28.5131814  47.4873767  31.3071832  29.1274637  46.9568775  30.7060782
  28.9161814  48.8293767  31.6921832  28.7218316  48.9865894  32.7531316
  30.4101814  49.0243767  31.4351832  30.8744327  48.2313567  32.0214332
  30.5693150  48.8318666  30.3741853  31.0381814  50.3693767  31.8091832
  30.5955427  51.1414751  31.1798693  30.8061814  50.7113767  33.2651832
  31.2489736  49.9399156  33.8951686  31.2671243  51.6729614  33.4909867
  29.7351262  50.7679037  33.4594661  32.5261814  50.3393767  31.5211832
  32.6876541  50.1492695  30.4601058  32.9680783  51.2990631  31.7891950
  32.9942640  49.5481952  32.1068704  28.0951814  49.8643767  30.9281832
  27.3991814  49.5533767  29.9591832  28.1541814  51.1083767  31.4011832
  28.6330213  51.2799052  32.2737596  27.4961814  52.2293767  30.7421832
  26.9950426  51.8889663  29.8360486  26.4471814  52.8473767  31.6811832
  25.6289401  52.1307923  31.7525071  26.9129261  52.9648280  32.6596447
  25.9091814  54.1813767  31.2161832  26.5051814  55.3683767  31.6181832
  27.3724383  55.3235976  32.2769393  26.0191814  56.5903767  31.1991832
  26.4999794  57.5146226  31.5196589  24.9191814  56.6373767  30.3711832
  24.4331814  57.8543767  29.9541832  24.9347669  58.5967160  30.2990658
  24.3061814  55.4733767  29.9601832  23.4360502  55.5096928  29.3047037
  24.8011814  54.2553767  30.3841832  24.3201613  53.3307262  30.0652140
  28.4731814  53.2993767  30.2811832  28.4551814  53.6853767  29.1091832
  29.3401814  53.7883767  31.1661832  29.3567553  53.4261814  32.1088598
  30.2431814  54.8873767  30.8301832  30.3112103  54.9837257  29.7465835
  29.7401814  56.2093767  31.4071832  28.7778132  56.4205336  30.9409648
  29.6000721  56.0624866  32.4781139  30.6801814  57.3763767  31.1761832
  31.5441023  57.2629640  31.8310717  31.0087396  57.3651514  30.1369404
  30.0271814  58.7133767  31.4631832  28.8521814  58.7783767  31.8241832
  30.7871814  59.7883767  31.3001832  30.4036672  60.7057837  31.4773347
  31.7458297  59.6844816  30.9996826  31.6391814  54.5713767  31.3441832
  31.7971814  54.0343767  32.4451832  32.6441814  54.9043767  30.5411832
  32.4274772  55.2392939  29.6132989  34.0411814  54.7813767  30.9201832
  34.1438582  54.9192859  31.9965371  34.5801814  53.3993767  30.5511832
  33.7561130  52.7400488  30.8237583  34.7147426  53.3838701  29.4696320
  35.8651814  52.9183767  31.2321832  35.7552926  53.0120288  32.3125787
  36.1311814  51.4683767  30.8751832  36.2416526  51.3739994  29.7949110
  37.0467577  51.1353755  31.3639887  35.2965560  50.8522815  31.2097389
  37.0561814  53.7813767  30.8601832  36.8702878  54.8103068  31.1681537
  37.9477974  53.4074670  31.3634859  37.2073730  53.7472780  29.7812590
  34.8481814  55.8653767  30.2181832  34.7451814  56.0463767  29.0041832
  35.6501814  56.5993767  30.9841832  35.7464911  56.4579569  31.9795847
  36.3891814  57.6893767  30.3681832  36.8686084  57.3357211  29.4553980
  35.4551814  58.8523767  30.0121832  36.0854875  59.6711421  29.6651434
  34.8206170  58.5111875  29.1942479  34.5881814  59.3333767  31.1561832
  33.8516313  58.5672666  31.3984023  35.2360195  59.4988998  32.0170008
  33.8911814  60.6413767  30.8451832  34.3841814  61.3893767  29.9751832
  32.8451814  60.9203767  31.4681832  32.4717912  61.7681812  31.2172123
  37.4961814  58.1903767  31.2801832  37.2591814  58.4883767  32.4501832
  32.5903442  60.2408553  32.0965044  33.8828371  62.1989028  29.8499061
  35.1779605  61.0273823  29.5754433  38.6981814  58.2993767  30.7231832
  38.9132714  57.8042262  29.8695664  39.7441814  59.1013767  31.3371832
  39.7663114  58.9170953  32.4112641  41.1081814  58.7453767  30.7531832
  41.1347838  57.6737571  30.5556408  41.2433027  59.2900253  29.8187314
  42.2471814  59.0933767  31.6841832  42.1231814  59.9803767  32.5251832
  43.3661814  58.3963767  31.5381832  44.1584516  58.5882242  32.1345071
  43.4208405  57.6769944  30.8313577  39.4181814  60.5693767  31.0951832
  38.4011814  60.8883767  30.4721832  40.2691814  61.4653767  31.5881832
  41.0897085  61.1800738  32.1033887  40.0131814  62.8913767  31.4311832
  39.8178418  63.1163263  30.3826893  38.7961814  63.3173767  32.2581832
  38.1052855  62.4746862  32.2329870  39.1326220  63.4802166  33.2820928
  38.0951814  64.5583767  31.7551832  38.7041814  65.8023767  31.8271832
  39.7065548  65.8743048  32.2492891  38.0621814  66.9383767  31.3751832
  38.5545232  67.9092216  31.4314114  36.7911814  66.8393767  30.8501832
  36.1461814  67.9673767  30.4001832  36.6716184  68.7646701  30.4993741
  36.1631814  65.6153767  30.7741832  35.1585845  65.5357289  30.3588017
  36.8141814  64.4853767  31.2281832  36.3214631  63.5145045  31.1758767
  41.2421814  63.6773767  31.8561832  41.8861814  63.3353767  32.8511832
  41.5531814  64.7283767  31.1041832  41.0377197  64.8948253  30.2517200
  42.6521814  65.6293767  31.4351832  42.4384781  66.1312114  32.3788950
  43.9711814  64.8653767  31.5751832  44.8047108  65.5657705  31.5224903
  43.9920092  64.3481190  32.5344072  44.2771814  63.5973767  30.3331832
  42.7881814  66.7153767  30.3751832  42.7401814  66.4333767  29.1771832
  42.9561814  67.9423767  30.7361832  43.0011340  68.2082137  31.7095327
  43.0861814  68.9833767  29.7311832  43.0172947  68.5405223  28.7375860
  42.2875746  69.7141479  29.8588594  44.0513499  69.4776125  29.8420018
  30.7558145  24.1475360  37.1625155  30.5611814  24.3643767  36.1121832
  29.7800179  25.1206831  36.0354851  30.2363767  23.4547711  35.6069915
  31.8051814  24.8823767  35.4231832  32.8691814  25.0143767  36.0431832
  31.7571814  25.1893767  34.1711832  30.9167053  25.0612218  33.6259533
  32.9481814  25.6883767  33.4971832  33.6489857  26.0857113  34.2314160
  33.6361814  24.5633767  32.7241832  33.5720030  23.6347735  33.2913485
  33.1645955  24.4274076  31.7509313  35.0901814  24.8073767  32.4651832
  35.6241814  26.0723767  32.3411832  35.0929957  26.9285926  32.4107233
  36.9231814  25.9803767  32.1201832  37.5294477  26.8768286  31.9901289
  37.2521814  24.7013767  32.1001832  38.1790167  24.3282167  31.9524410
  36.1241814  23.9473767  32.3141832  36.1914530  22.8596420  32.3344042
  32.5731814  26.8293767  32.5601832  31.7621814  26.6543767  31.6521832
  33.1621814  28.0023767  32.7921832  33.7941303  28.1038675  33.5734895
  32.8751814  29.1773767  31.9781832  32.1373179  28.9291062  31.2152819
  32.3161814  30.3043767  32.8511832  31.4156429  29.8721253  33.2874038
  33.0414561  30.5042565  33.6399319  31.9611814  31.6133767  32.1411832
  31.6830850  31.3946216  31.1102082  30.8021814  32.2983767  32.8431832
  31.0797114  32.5178800  33.8741508  30.5617230  33.2275245  32.3264967
  29.9318835  31.6421833  32.8335830  33.1571814  32.5493767  32.0731832
  33.9660501  32.0669219  31.5244863  32.8708604  33.4691374  31.5631225
  33.4933752  32.7841286  33.0831160  34.1231814  29.6423767  31.2401832
  34.0841814  29.8703767  30.0271832  35.2341814  29.7843767  31.9601832
  35.2183668  29.5772949  32.9485993  36.4721814  30.2803767  31.3791832
  36.4274376  30.1791771  30.2948143  36.7021814  31.7553767  31.7241832
  35.7942591  32.1731553  32.1591974  37.5192778  31.8382972  32.4408264
  37.1281814  32.7863767  30.3041832  37.6351814  29.4333767  31.8721832
  37.5551814  28.7723767  32.9101832  38.7251814  29.4693767  31.1141832
  38.7590381  30.1091631  30.3333974  39.8751814  28.6253767  31.3601832
  39.5212536  27.6831133  31.7784819  40.3677750  28.4366108  30.4063392
  40.8721814  29.2443767  32.3151832  40.5391814  30.0823767  33.1561832
  42.1231814  28.8173767  32.1731832  42.3434003  28.1750387  31.4255169
  43.1861814  29.2023767  33.0861832  42.7665658  29.7255044  33.9454616
  43.9301814  27.9633767  33.5841832  44.4264459  27.4907550  32.7365692
  44.6771443  28.2753706  34.3141190  43.0401814  27.0393767  34.1851832
  43.5317327  26.2725629  34.4884547  44.1631814  30.1663767  32.4151832
  44.1521814  30.3673767  31.1991832  45.0191814  30.7683767  33.2391832
  44.8962429  30.6327560  34.2324568  46.0741814  31.6723767  32.7891832
  46.5998682  32.0796685  33.6528185  47.0841814  30.9353767  31.9041832
  47.1915413  29.9026502  32.2359196  46.7522550  30.9503357  30.8660593
  48.4551814  31.5363767  31.9241832  49.5981814  30.7843767  31.7611832
  49.6119154  29.7849526  31.6160535  50.6551814  31.5743767  31.8251832
  51.6606514  31.1669318  31.7197430  50.2381814  32.8113767  32.0221832
  50.8248859  33.6287260  32.1106020  48.8661814  32.8153767  32.0891832
  48.3311290  33.7512383  32.2503765  45.5181814  32.8853767  32.0541832
  46.1891814  33.4513767  31.1841832  44.2991814  33.2963767  32.3851832
  43.7389323  32.7732577  33.0428813  43.7221814  34.4873767  31.7821832
  43.8663617  34.4622274  30.7020541  42.2241814  34.5593767  32.0731832
  42.1703777  34.8530598  33.1214935  41.7819299  35.3402282  31.4544873
  41.4561814  33.2523767  31.8701832  41.7775369  32.5305245  32.6210233
  39.9661814  33.4903767  32.0041832  39.6439797  34.2118240  31.2533178
  39.4330170  32.5511070  31.8571837  39.7478864  33.8796979  32.9986060
  41.7841814  32.6413767  30.5251832  42.8527634  32.4333196  30.4709235
  41.2270110  31.7126984  30.4018181  41.5093658  33.3373812  29.7326220
  44.4151814  35.7373767  32.3101832  44.8051814  35.8153767  33.4781832
  44.5681814  36.7243767  31.4311832  44.2340590  36.5985671  30.4863903
  45.2491814  37.9693767  31.7631832  45.2826051  38.1313013  32.8405700
  46.6911814  37.9933767  31.2161832  46.6637054  37.8440006  30.1368171
  47.3551814  39.3243767  31.5261832  47.3834435  39.4742570  32.6054598
  48.3718672  39.3240645  31.1331815  46.7872574  40.1310179  31.0626165
  47.4971814  36.8423767  31.7941832  47.0297196  35.8967914  31.5195015
  48.5121651  36.8739051  31.3980599  47.5287018  36.9295326  32.8802362
  44.4471814  39.1353767  31.2061832  43.9401814  39.0763767  30.0821832
  44.3311814  40.1933767  32.0011832  44.6495844  40.1147809  32.9564536
  43.7391814  41.4503767  31.5731832  43.7935243  41.5221725  30.4869091
  42.2731814  41.5543767  31.9971832  41.7586201  40.6792590  31.6003268
  42.2485901  41.5267202  33.0865547  41.5801814  42.8143767  31.5071832
  42.1361959  43.6853241  31.8541691  41.5806014  42.7942247  30.4173699
  40.1401814  42.9033767  31.9661832  39.7811814  42.1983767  32.9301832
  39.3681814  43.6783767  31.3631832  38.4744558  43.6676758  31.7129248
  44.5361814  42.5973767  32.1741832  45.1231814  42.4593767  33.2521832
  39.7972862  44.1539809  30.6482366  38.8527305  42.3090513  33.1495070
  40.4939273  41.6679068  33.2928291  44.5571814  43.7283767  31.4761832
  44.0832312  43.7664943  30.5851065  45.2771814  44.9093767  31.9251832
  45.1706423  45.0200365  33.0043046  46.7661814  44.8033767  31.5891832
  46.8895123  44.7012229  30.5110115  47.2808833  45.7018253  31.9297304
  47.1903682  43.9314638  32.0871115  44.6761814  46.1463767  31.2791832
  44.8811814  46.3913767  30.0871832  43.9481814  46.9273767  32.0691832
  43.8080825  46.6487718  33.0298345  43.3031814  48.1453767  31.6031832
  43.3811699  48.2104416  30.5179258  41.8231814  48.1543767  31.9881832
  41.3736133  47.4388116  31.2997398  41.7406538  47.7779373  33.0077824
  41.0941814  49.4923767  31.8791832  41.4519090  50.1545193  32.6676620
  41.3471814  50.1283767  30.5361832  40.9892730  49.4669788  29.7471627
  40.8191026  51.0802023  30.4790727  42.4163780  50.2985040  30.4097881
  39.6061814  49.2993767  32.1091832  39.4425471  48.8844231  33.1037367
  39.0979460  50.2602843  32.0288426  39.2080656  48.6146404  31.3603581
  44.0191814  49.3503767  32.1931832  44.1291814  49.4743767  33.4171832
  44.5021814  50.2323767  31.3231832  44.3610528  50.0657559  30.3370698
  45.2511814  51.4153767  31.7231832  45.4084594  51.3996282  32.8016612
  46.6141814  51.4623767  31.0311832  46.4405772  51.4354500  29.9554342
  47.0531875  52.4220535  31.3039359  47.5591814  50.3493767  31.4161832
  47.3071814  49.0403767  31.0401832  46.4071459  48.8226406  30.4651818
  48.1701814  48.0223767  31.3801832  47.9551189  46.9960081  31.0828325
  49.3091814  48.3063767  32.0981832  50.1731814  47.2923767  32.4381832
  49.8840238  46.4322949  32.1247397  49.5871814  49.5993767  32.4781832
  50.4888605  49.8261951  33.0470668  48.7151814  50.6123767  32.1341832
  48.9304684  51.6398537  32.4275133  44.4611814  52.6683767  31.3771832
  44.0661814  52.8613767  30.2231832  44.2391814  53.5133767  32.3781832
  44.4584100  53.2082153  33.3156876  43.6761814  54.8453767  32.1991832
  43.4520314  55.0056018  31.1445819  42.3881814  55.0143767  33.0031832
  42.6439990  54.5306583  33.9458777  42.2595374  56.0842073  33.1675402
  41.0851814  54.4213767  32.4631832  40.4120384  54.2239368  33.2974474
  40.4261814  55.3843767  31.5011832  41.0985855  55.5819531  30.6663567
  39.5006217  54.9476605  31.1260578  40.2036878  56.3185871  32.0167876
  41.3201814  53.0853767  31.7961832  41.7435145  52.3875015  32.5185810
  40.3737522  52.6929211  31.4242267  42.0129724  53.2109765  30.9640988
  44.7261814  55.8473767  32.6551832  44.7731814  56.2023767  33.8381832
  45.5611814  56.3033767  31.7241832  45.4015202  56.1001193  30.7478154
  46.7611814  57.0483767  32.0881832  46.7996417  57.2630717  33.1561373
  48.0321814  56.2723767  31.6961832  48.0585366  56.1591180  30.6124041
  49.2751814  57.0183767  32.1581832  49.2497640  57.1316220  33.2419868
  50.1641789  56.4558768  31.8729154  49.3033422  58.0028227  31.6910913
  48.0061814  54.8663767  32.2721832  47.1368301  54.3321566  31.8888564
  48.9140273  54.3374725  31.9820528  47.9490075  54.9195729  33.3593824
  46.7671814  58.4283767  31.4441832  47.2021814  58.5913767  30.2991832
  46.2911814  59.4283767  32.1791832  45.7116428  59.2481272  32.9864901
  46.5611814  60.8113767  31.8191832  46.5799705  60.9125376  30.7340506
  45.4791814  61.7323767  32.3761832  45.1435518  61.3564799  33.3426994
  45.8839919  62.7370221  32.4983143  44.0001814  61.8663767  31.3521832
  47.9271814  61.2133767  32.3571832  48.0511814  61.7153767  33.4771832
  48.9561814  60.9893767  31.5471832  48.7866195  60.7513118  30.5803982
  50.3261814  61.0743767  32.0021832  50.4341546  60.4284034  32.8734807
  50.9718059  60.7141663  31.2012357  50.7441814  62.4823767  32.3771832
  49.9331814  63.3573767  32.6841832  52.0591814  62.6913767  32.3441832
  52.6641074  61.9533295  32.0133505  52.6711814  63.9263767  32.8171832
  52.5131155  64.0359651  33.8900787  54.1761814  63.8983767  32.5451832
  54.3075056  63.8014881  31.4674699  54.5815859  64.8547242  32.8755567
  54.9081814  62.7693767  33.2471832  54.6719762  62.7986904  34.3108789
  54.5556108  61.8292313  32.8230135  56.4091814  62.8313767  33.0481832
  56.9081814  63.8843767  32.6001832  57.0901814  61.8263767  33.3411832
  58.0284264  61.9463634  33.1784609  52.0511814  65.1583767  32.1711832
  51.8481814  65.1973767  30.9531832  56.5608577  61.0999341  33.6781942
  57.8617044  63.8326395  32.4977625  56.2557552  64.5691789  32.4380005
  51.7451814  66.1663767  32.9831832  51.8599178  66.0338566  33.9778556
  51.2201814  67.4413767  32.5121832  51.4059199  67.5352214  31.4422329
  49.7151814  67.5503767  32.7581832  49.5566865  67.4236126  33.8291218
  49.4155079  68.5561208  32.4636078  48.8821814  66.5313767  31.9991832
  49.1605337  66.5729113  30.9461420  49.1043586  65.5401284  32.3943617
  47.3951814  66.8113767  32.1411832  46.8391604  66.0920893  31.5398801
  47.1119406  66.7047518  33.1883246  47.0491814  68.1573767  31.6981832
  47.7926062  68.7137369  31.3008391  45.8371814  68.6883767  31.7821832
  44.8191814  68.0143767  32.2921832  44.9588990  67.0721973  32.6281548
  43.9070904  68.4451801  32.3431551  45.6411814  69.9283767  31.3441832
  46.4125892  70.4507365  30.9540931  44.7217898  70.3422495  31.4035734
  51.9561814  68.5603767  33.2331832  52.4741814  68.3563767  34.3351832
  52.0071814  69.7233767  32.6141832  51.6210261  69.8199156  31.6859247
  52.6091814  70.8873767  33.2321832  51.9740631  71.7559860  33.0582815
  52.7045913  70.7165320  34.3044743  53.9861814  71.1573767  32.6501832
  54.2471814  70.8653767  31.4851832  54.8491814  71.7143767  33.4961832
  54.5629268  71.8431639  34.4561683  56.1731814  72.1773767  33.1021832
  56.2758481  72.1093958  32.0191608  56.3941814  73.6323767  33.5241832
  56.3398975  73.7355700  34.6079284  57.3755400  73.9562715  33.1775892
  55.3941814  74.5983767  32.9491832  54.0531814  74.5143767  33.2801832
  53.7237521  73.7319547  33.9638439  53.1371814  75.4043767  32.7571832
  52.0826476  75.3187163  33.0193312  53.5551814  76.3993767  31.9051832
  52.8349422  77.1063833  31.4934829  54.8881814  76.5013767  31.5721832
  55.2222148  77.2876326  30.8951872  55.8011814  75.6073767  32.0961832
  56.8568383  75.6924406  31.8383993  57.2161814  71.2763767  33.7451832
  57.1911814  71.0623767  34.9611832  58.1271814  70.7493767  32.9301832
  58.0760596  70.9584919  31.9433920  59.1761814  69.8503767  33.3921832
  59.2201374  69.8714455  34.4810923  58.9071814  68.4123767  32.9411832
  58.9107673  68.3503655  31.8529548  59.6696543  67.7463265  33.3450547
  57.5831814  67.8753767  33.3971832  56.4081814  68.3303767  32.8291832
  56.4567220  69.0839099  32.0430970  55.1911814  67.8463767  33.2421832
  54.2731769  68.2173324  32.7863757  55.1311814  66.8933767  34.2311832
  54.1660508  66.5093755  34.5615858  56.2931814  66.4233767  34.8051832
  56.2497565  65.6648470  35.5867502  57.5131814  66.9153767  34.3881832
  58.4333032  66.5466408  34.8415148  60.5131814  70.3313767  32.8541832
  60.6591814  70.5433767  31.6471832  61.4891814  70.4873767  33.7491832
  61.3075516  70.2656047  34.7176496  62.7971814  71.0273767  33.3971832
  62.8644345  71.1491372  32.3160955  63.0181814  72.3873767  34.0561832
  63.1380662  72.2181845  35.1262770  63.9463198  72.7848488  33.6454825
  61.9001814  73.3783767  33.8251832  60.7171814  73.2963767  34.5381832
  60.6021098  72.4981900  35.2715017  59.6961814  74.1983767  34.3361832
  58.7693700  74.1177225  34.9041774  59.8511814  75.2043767  33.4141832
  58.8351814  76.1073767  33.2091832  58.0679968  75.9406383  33.7616556
  61.0161814  75.3123767  32.6941832  61.1400279  76.1099610  31.9616384
  62.0341814  74.4023767  32.9031832  62.9623934  74.4835536  32.3375571
  63.9101814  70.0643767  33.7881832  64.9651814  70.4883767  34.2681832
  63.6891814  68.7683767  33.5931832  62.7965209  68.4591623  33.2359115
  64.6911814  67.7603767  33.9151832  64.8870691  67.7586419  34.9874351
  64.2251814  66.3543767  33.4981832  64.1011997  66.3303042  32.4155247
  65.2451814  65.3043767  33.9151832  65.3693622  65.3275346  34.9978384
  64.8965406  64.3174500  33.6110048  66.2011201  65.5151559  33.4357523
  62.9641814  66.0623767  34.1121832  62.6762689  65.1848520  33.8501580
  66.0171814  68.0693767  33.2281832  66.0491814  68.4073767  32.0441832
  67.1181814  67.9753767  33.8941832  67.1285051  67.7002602  34.8659360
  68.3851814  68.2683767  33.2481832  68.2080015  68.5480329  32.2096745
  68.8762609  69.0916981  33.7669156  69.0237241  67.3856557  33.2823431
  86.3751130  96.2366600  56.6028480  86.2945180  95.3221210  56.3320190
  85.9615550  96.7333670  55.8968190  76.9326950  93.2867320  53.1455900
  76.0443650  93.6283290  53.0435780  77.2168140  93.0867640  52.2536730
  79.1088340  91.8698820  54.1794280  79.2155090  92.7702550  54.4863040
  78.1980700  91.8216790  53.8888930  88.7607450  90.9923630  55.6505180
  89.5817070  90.5020200  55.6930660  88.7941530  91.5821290  56.4037020
  82.5975390  88.6775980  57.1097920  82.9050370  88.1222870  56.3933420
  81.6676090  88.8120440  56.9270910  84.9856150  96.7424810  53.8458040
  84.0585430  96.6762190  54.0746510  85.1380970  97.6804940  53.7313280
  84.9725230  93.0141810  50.8425200  84.0328900  93.1755770  50.9277660
  85.2908490  93.7327490  50.2961190  89.0153440  98.3045110  54.3493290
  88.3965860  97.9664660  53.7019590  88.9977890  97.6604870  55.0572480
  80.5912790  97.2689550  56.6277770  80.1869790  96.5566800  56.1323670
  80.6775910  96.9242790  57.5165810  87.1918140  97.5431920  51.3566040
  87.6311420  96.7054350  51.2103860  87.9046560  98.1761320  51.4430180
  77.2917420  96.1634530  54.1284420  77.1715020  96.8896620  53.5165690
  76.9818310  95.3937440  53.6512330  79.7581080  89.5069600  57.5108090
  79.3149230  90.2879140  57.1792610  80.3166070  89.8299490  58.2179030
  82.8739900  89.1280300  52.3913920  82.2494080  89.1240170  53.1167230
  82.7870020  88.2611260  51.9949890  79.5495300  94.6303170  55.2389340
  79.3236220  94.4140340  56.1435960  78.7687830  95.0631630  54.8935310
  86.7793060  94.6366540  53.8379990  86.1801950  95.3602340  53.6543610
  87.3272670  94.5743320  53.0556440  85.3857930  93.2730080  55.8683270
  85.7787500  93.5902280  55.0551960  85.7474780  92.3941960  55.9827790
  74.6092330  93.8051000  49.3016190  74.5267000  94.7481760  49.4431180
  74.2575390  93.6625910  48.4228540  82.4090460  92.5390030  58.3686540
  82.4126520  92.0979980  57.5191080  83.3041580  92.8607360  58.4758360
  78.2592840  92.4216520  57.3280750  77.9192890  92.8991750  58.0847800
  77.4970160  91.9681640  56.9681850  82.4710610  93.5402110  51.3593300
  82.5923430  93.4988590  52.3079120  82.0859120  94.4026260  51.2040030
  81.4832110  95.8503250  50.7576600  80.9149010  95.4021500  50.1312510
  82.1921110  96.2096030  50.2241750  75.5738920  91.3435500  56.2445420
  75.2885840  90.9791170  57.0824040  75.5117780  90.6115960  55.6308560
  85.2477510  90.2364760  52.9658790  84.4342120  89.7377930  52.8904100
  85.0539460  91.0763010  52.5495140  87.9625900  94.6084410  51.2620950
  88.8505520  94.9201640  51.0872290  87.9330990  93.7356660  50.8701530
  75.0669580  96.4794450  50.2042120  75.9364430  96.7619250  50.4878040
  74.5759900  97.2930320  50.0890930  82.2304390  97.8667660  54.3250400
  82.6867170  98.6772910  54.5510590  81.8792600  97.5490800  55.1568890
  78.1316170  88.2105310  54.7972920  78.0030800  88.2023210  55.7457840
  77.3078190  88.5488400  54.4463930  89.9910910  91.4175680  52.8168630
  89.3624070  91.5221350  52.1026860  89.4962830  91.6372460  53.6062510
  81.9594940  93.6961630  54.2326510  81.2511090  94.1647970  54.6740120
  82.2439420  93.0383640  54.8671700  85.9910370  90.4212290  55.6722300
  85.8678150  90.4398420  54.7231810  86.9394930  90.4691230  55.7920700
  80.1629960  92.0046710  51.6077220  81.0120490  92.4416860  51.5417410
  79.7961230  92.3166970  52.4349280  89.0839740  96.5759470  56.5208790
  88.1429880  96.5909700  56.6956480  89.3983810  95.7895430  56.9669090
  79.0621380  98.2579070  50.0812750  79.8284650  98.1460430  50.6438180
  79.1396070  97.5617040  49.4289520  77.7568140  95.6904140  50.7645640
  77.8371730  94.7431650  50.8763040  78.6487890  96.0211020  50.8706300
  81.0940410  98.2544200  52.0555390  81.5156830  98.0884070  52.8986780
  81.2191250  97.4444430  51.5610530  83.6068050  97.2781810  49.3032490
  84.1273710  96.5630830  48.9373640  84.2536450  97.9167680  49.6033000
  79.9899310  94.3277430  49.0013550  79.7888370  93.4644790  49.3626890
  79.8191360  94.2410790  48.0635150  87.4687620  89.1385660  51.5300430
  87.7489910  88.2953560  51.8859850  86.6953350  89.3708770  52.0439180
  78.7882110  91.4278050  48.9891430  79.0908010  91.4345480  48.0810580
  79.5276700  91.0775910  49.4859090  82.0067040  90.3712670  49.9747630
  81.6589040  89.6936660  49.3950080  82.2079810  89.9102180  50.7891020
  75.3472680  96.9000320  56.3712000  74.6921520  96.6311960  55.7271700
  76.1850630  96.7904800  55.9213980  88.2963120  91.6941610  50.5930490
  88.7148000  91.5072590  49.7527150  87.9899180  90.8420660  50.9033420
  74.5610760  94.1099250  52.3137330  73.6574840  94.3729450  52.1388990
  75.0451380  94.3810420  51.5337290  77.1037970  93.1664790  50.2231710
  77.8129670  92.7448010  49.7378990  76.3877910  93.2340020  49.5915060
  76.7512130  89.2204120  49.2634360  77.4740260  89.7613060  49.5815580
  77.0236650  88.9467540  48.3875900  89.3839630  89.6573000  58.3805300
  89.8247720  89.6018100  57.5326900  89.1147220  90.5731010  58.4515480
  76.1758970  89.2597380  52.8569930  76.9338330  89.3726260  52.2833960
  75.7136140  90.0966580  52.8113360  82.7172780  91.3736650  55.8472240
  81.9047290  90.9993540  55.5068120  83.2214420  90.6181730  56.1493430
  87.2197760  88.0379100  57.0855310  87.8227130  88.6099310  57.5603830
  86.4790750  88.6018540  56.8629210  78.5484120  89.7861430  51.3971900
  79.0776880  88.9991230  51.2679850  79.1812440  90.4652620  51.6307430
  80.7421960  89.5236570  54.4517290  80.1124700  88.8223880  54.6187420
  80.2027100  90.2840700  54.2350450  86.3751130  96.2366600  37.8284990
  86.2945180  95.3221210  37.5576700  85.9615550  96.7333670  37.1224700
  84.5069170  98.0145620  39.7094260  83.7311270  97.5346060  39.9992830
  85.1582100  97.3351270  39.5350420  78.5235000  98.3265430  40.5870020
  77.6919880  98.0714140  40.9866530  79.1315980  98.3976200  41.3227940
  76.9326950  93.2867320  34.3712410  76.0443650  93.6283290  34.2692290
  77.2168140  93.0867640  33.4793240  74.8959960  95.8872970  40.2552110
  75.4676070  95.1195170  40.2555750  74.8961500  96.1861730  39.3458720
  76.1384830  91.2957330  42.0421040  75.9587670  90.3983080  42.3223800
  75.7364910  91.8429200  42.7167990  84.9783330  93.4973190  39.9433350
  85.3548150  92.6245070  39.8307020  84.8802840  93.8331890  39.0523790
  79.1088340  91.8698820  35.4050790  79.2155090  92.7702550  35.7119550
  78.1980700  91.8216790  35.1145440  88.7607450  90.9923630  36.8761690
  89.5817070  90.5020200  36.9187170  88.7941530  91.5821290  37.6293530
  76.7571500  93.7917830  40.6503380  77.4381610  94.0556200  41.2690780
  76.4419550  92.9518700  40.9841390  80.9496070  94.8385190  39.7375970
  81.4574290  95.3366160  40.3780990  81.4809310  94.0620390  39.5615330
  79.2332170  89.4783750  44.0039390  79.2350610  89.9956140  43.1985290
  78.4036480  89.0013930  43.9809320  88.9968930  92.9324010  39.6489230
  88.2924500  93.2208900  40.2292340  89.3581090  93.7424120  39.2888790
  78.9147500  91.1893710  42.0109840  79.2564310  92.0335760  41.7163710
  77.9763310  91.3377450  42.1275180  82.5975390  88.6775980  38.3354430
  82.9050370  88.1222870  37.6189930  81.6676090  88.8120440  38.1527420
  84.9856150  96.7424810  35.0714550  84.0585430  96.6762190  35.3003020
  85.1380970  97.6804940  34.9569790  84.9725230  93.0141810  32.0681710
  84.0328900  93.1755770  32.1534170  85.2908490  93.7327490  31.5217700
  89.0153440  98.3045110  35.5749800  88.3965860  97.9664660  34.9276100
  88.9977890  97.6604870  36.2828990  88.4580000  94.4829650  42.9915610
  88.0451180  95.3083360  43.2455600  87.7255950  93.8974690  42.7991970
  80.5912790  97.2689550  37.8534280  80.1869790  96.5566800  37.3580180
  80.6775910  96.9242790  38.7422320  79.3041410  94.0432760  41.6333320
  79.8556000  94.1528100  40.8586570  79.8184920  94.4170360  42.3488550
  87.1918140  97.5431920  32.5822550  87.6311420  96.7054350  32.4360370
  87.9046560  98.1761320  32.6686690  78.9784140  97.5652120  45.2438660
  78.8391910  98.4374920  45.6126060  78.0965500  97.2224930  45.0986600
  77.2917420  96.1634530  35.3540930  77.1715020  96.8896620  34.7422200
  76.9818310  95.3937440  34.8768840  79.7581080  89.5069600  38.7364600
  79.3149230  90.2879140  38.4049120  80.3166070  89.8299490  39.4435540
  84.0450890  92.3738120  44.3399920  83.5830260  92.5821140  45.1519860
  83.6429000  91.5597470  44.0370590  89.0455400  93.5947070  45.4696580
  88.1948990  93.2952820  45.7905650  88.8857190  93.8389080  44.5580400
  86.1405110  95.0948820  47.5695370  86.4658520  94.2612570  47.2297600
  86.9285440  95.6177340  47.7173700  82.8739900  89.1280300  33.6170430
  82.2494080  89.1240170  34.3423740  82.7870020  88.2611260  33.2206400
  81.7956980  90.0516930  40.5954200  82.0929310  90.9579760  40.5146220
  82.3442540  89.5635710  39.9813770  79.5495300  94.6303170  36.4645850
  79.3236220  94.4140340  37.3692470  78.7687830  95.0631630  36.1191820
  86.7793060  94.6366540  35.0636500  86.1801950  95.3602340  34.8800120
  87.3272670  94.5743320  34.2812950  81.9894510  95.5288750  47.1306120
  81.8938110  94.5883480  46.9806520  82.8326490  95.7503820  46.7354190
  85.3857930  93.2730080  37.0939780  85.7787500  93.5902280  36.2808470
  85.7474780  92.3941960  37.2084300  77.1205050  91.9402420  45.2839900
  76.7268440  92.7877630  45.4912680  76.4323450  91.3028790  45.4748540
  83.6950100  92.0237390  48.3536640  83.0048420  91.8309590  48.9882730
  84.4382400  92.3072030  48.8860940  74.4222100  89.8630880  39.3169980
  74.1335150  90.4333740  40.0294960  75.1667860  89.3835330  39.6801210
  74.6092330  93.8051000  30.5272700  74.5267000  94.7481760  30.6687690
  74.2575390  93.6625910  29.6485050  85.9713070  95.8635830  41.1890560
  85.2394190  96.3722640  41.5380660  85.5737410  95.0465810  40.8879340
  82.4090460  92.5390030  39.5943050  82.4126520  92.0979980  38.7447590
  83.3041580  92.8607360  39.7014870  78.2592840  92.4216520  38.5537260
  77.9192890  92.8991750  39.3104310  77.4970160  91.9681640  38.1938360
  82.4710610  93.5402110  32.5849810  82.5923430  93.4988590  33.5335630
  82.0859120  94.4026260  32.4296540  86.4338980  91.3169510  40.6013500
  86.4511720  91.7678160  41.4455350  86.1854560  90.4175150  40.8146940
  81.4832110  95.8503250  31.9833110  80.9149010  95.4021500  31.3569020
  82.1921110  96.2096030  31.4498260  89.8609730  88.7301690  46.4399880
  90.1855500  87.9991350  46.9657860  89.8966240  88.4115330  45.5380870
  82.7098430  96.5991810  41.3408460  83.0768560  96.1250380  42.0869800
  82.5203490  97.4733380  41.6816800  75.5738920  91.3435500  37.4701930
  75.2885840  90.9791170  38.3080550  75.5117780  90.6115960  36.8565070
  80.4997800  95.6400450  43.6592670  80.1954870  96.5192430  43.8843030
  81.4544260  95.7000240  43.6950110  85.2477510  90.2364760  34.1915300
  84.4342120  89.7377930  34.1160610  85.0539460  91.0763010  33.7751650
  87.9625900  94.6084410  32.4877460  88.8505520  94.9201640  32.3128800
  87.9330990  93.7356660  32.0958040  76.5561530  96.4803190  44.8064030
  76.1976470  97.1457040  45.3937370  76.2616090  95.6486740  45.1776650
  79.7574650  96.9387430  47.6903580  79.4574790  97.0844610  46.7931400
  80.5285890  96.3792720  47.5976970  75.0669580  96.4794450  31.4298630
  75.9364430  96.7619250  31.7134550  74.5759900  97.2930320  31.3147440
  82.2304390  97.8667660  35.5506910  82.6867170  98.6772910  35.7767100
  81.8792600  97.5490800  36.3825400  78.1316170  88.2105310  36.0229430
  78.0030800  88.2023210  36.9714350  77.3078190  88.5488400  35.6720440
  75.1310100  89.9696430  45.4836130  74.4168620  90.1693350  46.0888740
  75.5505140  89.1936000  45.8550930  86.6248880  92.4618740  43.2337580
  86.9929700  91.6413950  43.5617150  85.7647080  92.5220630  43.6493230
  89.9910910  91.4175680  34.0425140  89.3624070  91.5221350  33.3283370
  89.4962830  91.6372460  34.8319020  81.9594940  93.6961630  35.4583020
  81.2511090  94.1647970  35.8996630  82.2439420  93.0383640  36.0928210
  83.5850870  95.1158330  43.4575550  84.0836120  95.5904150  44.1227400
  83.7273820  94.1921850  43.6645580  85.9910370  90.4212290  36.8978810
  85.8678150  90.4398420  35.9488320  86.9394930  90.4691230  37.0177210
  80.1629960  92.0046710  32.8333730  81.0120490  92.4416860  32.7673920
  79.7961230  92.3166970  33.6605790  89.0839740  96.5759470  37.7465300
  88.1429880  96.5909700  37.9212990  89.3983810  95.7895430  38.1925600
  79.0621380  98.2579070  31.3069260  79.8284650  98.1460430  31.8694690
  79.1396070  97.5617040  30.6546030  77.7568140  95.6904140  31.9902150
  77.8371730  94.7431650  32.1019550  78.6487890  96.0211020  32.0962810
  75.2838940  97.5119060  47.2258320  75.7877960  96.9326340  47.7974550
  74.5446360  97.7959290  47.7634690  77.3162020  95.6548650  48.1208390
  77.3567360  95.3562520  49.0293620  78.1707520  96.0556260  47.9615910
  81.0940410  98.2544200  33.2811900  81.5156830  98.0884070  34.1243290
  81.2191250  97.4444430  32.7867040  79.2567830  94.2340750  46.0882880
  78.7264290  93.7431700  45.4606220  79.9255900  94.6624950  45.5540810
  83.6068050  97.2781810  30.5289000  84.1273710  96.5630830  30.1630150
  84.2536450  97.9167680  30.8289510  88.6268060  96.0406370  47.8563220
  89.2088830  95.2858690  47.7683700  88.8029830  96.5713810  47.0794700
  79.7440130  91.2003120  46.1680170  79.6497000  90.5823870  45.4431040
  79.1637520  91.9269410  45.9410080  82.5101570  89.7576360  43.2007560
  82.0618870  89.7800620  42.3553110  81.8766770  89.3595380  43.7977860
  85.2525020  96.3846870  45.2057840  85.3721230  95.7888010  45.9452680
  86.1119020  96.4216560  44.7859140  87.5912920  96.9384060  43.7820350
  87.0648140  97.4626680  43.1785490  87.9344260  97.5711450  44.4130080
  79.9899310  94.3277430  30.2270060  79.7888370  93.4644790  30.5883400
  79.8191360  94.2410790  29.2891660  82.0193790  92.9268220  46.4633660
  82.6093480  92.6184070  47.1511480  81.2014030  92.4547970  46.6193560
  86.8387220  92.5434030  46.6966680  86.1502740  91.8815570  46.6316670
  87.5593240  92.0972300  47.1415140  87.4687620  89.1385660  32.7556940
  87.7489910  88.2953560  33.1116360  86.6953350  89.3708770  33.2695690
  78.7882110  91.4278050  30.2147940  79.0908010  91.4345480  29.3067090
  79.5276700  91.0775910  30.7115600  82.0067040  90.3712670  31.2004140
  81.6589040  89.6936660  30.6206590  82.2079810  89.9102180  32.0147530
  75.3472680  96.9000320  37.5968510  74.6921520  96.6311960  36.9528210
  76.1850630  96.7904800  37.1470490  88.2963120  91.6941610  31.8187000
  88.7148000  91.5072590  30.9783660  87.9899180  90.8420660  32.1289930
  76.3848610  97.2852890  42.1371850  76.7521650  97.1980290  43.0167870
  75.8159430  96.5219440  42.0378710  75.9364610  94.1961980  46.0430270
  75.0420660  94.1628740  46.3823980  76.4762160  94.3948770  46.8081520
  74.5610760  94.1099250  33.5393840  73.6574840  94.3729450  33.3645500
  75.0451380  94.3810420  32.7593800  77.1037970  93.1664790  31.4488220
  77.8129670  92.7448010  30.9635500  76.3877910  93.2340020  30.8171570
  76.7512130  89.2204120  30.4890870  77.4740260  89.7613060  30.8072090
  77.0236650  88.9467540  29.6132410  76.4404320  88.4710310  40.3913490
  77.0880510  87.9207690  39.9508650  76.8606160  88.7253460  41.2129300
  76.1936320  88.6265980  43.1338810  75.8451140  89.0829800  43.8996990
  75.8624020  87.7323110  43.2161240  83.7061140  89.8177860  46.6558230
  83.6450030  90.4099690  47.4053640  84.6461520  89.7103820  46.5108490
  86.3435700  89.4747920  46.2950520  86.9576110  89.7927210  45.6331600
  86.8885260  88.9896510  46.9146380  76.8656960  88.1542180  46.4089580
  77.4139950  87.9730230  45.6455690  76.9312270  87.3636290  46.9445890
  87.0843740  88.0380060  42.6219810  86.2103580  88.3715170  42.4192740
  86.9754490  87.5653240  43.4471680  87.9915720  90.2450930  44.0061530
  87.6629080  89.4302690  43.6263260  88.9398020  90.2020740  43.8827220
  84.8318560  88.9549900  41.5612720  84.0490350  89.4295400  41.8409480
  84.5381490  88.0504730  41.4525900  89.3839630  89.6573000  39.6061810
  89.8247720  89.6018100  38.7583410  89.1147220  90.5731010  39.6771990
  76.1758970  89.2597380  34.0826440  76.9338330  89.3726260  33.5090470
  75.7136140  90.0966580  34.0369870  82.7172780  91.3736650  37.0728750
  81.9047290  90.9993540  36.7324630  83.2214420  90.6181730  37.3749940
  87.2197760  88.0379100  38.3111820  87.8227130  88.6099310  38.7860340
  86.4790750  88.6018540  38.0885720  78.5484120  89.7861430  32.6228410
  79.0776880  88.9991230  32.4936360  79.1812440  90.4652620  32.8563940
  80.7421960  89.5236570  35.6773800  80.1124700  88.8223880  35.8443930
  80.2027100  90.2840700  35.4606960  80.8677520  88.8020550  48.1126290
  80.5861790  89.3054150  47.3487110  81.2497220  88.0042300  47.7468420
  87.4692980  88.2174130  48.6906760  87.3558430  88.5368740  49.5858280
  88.2862720  88.6186640  48.3944040  86.3751130  96.2366600  19.0541500
  86.2945180  95.3221210  18.7833210  85.9615550  96.7333670  18.3481210
  84.5069170  98.0145620  20.9350770  83.7311270  97.5346060  21.2249340
  85.1582100  97.3351270  20.7606930  78.5235000  98.3265430  21.8126530
  77.6919880  98.0714140  22.2123040  79.1315980  98.3976200  22.5484450
  76.9326950  93.2867320  15.5968920  76.0443650  93.6283290  15.4948800
  77.2168140  93.0867640  14.7049750  74.8959960  95.8872970  21.4808620
  75.4676070  95.1195170  21.4812260  74.8961500  96.1861730  20.5715230
  76.1384830  91.2957330  23.2677550  75.9587670  90.3983080  23.5480310
  75.7364910  91.8429200  23.9424500  84.9783330  93.4973190  21.1689860
  85.3548150  92.6245070  21.0563530  84.8802840  93.8331890  20.2780300
  79.1088340  91.8698820  16.6307300  79.2155090  92.7702550  16.9376060
  78.1980700  91.8216790  16.3401950  88.7607450  90.9923630  18.1018200
  89.5817070  90.5020200  18.1443680  88.7941530  91.5821290  18.8550040
  76.7571500  93.7917830  21.8759890  77.4381610  94.0556200  22.4947290
  76.4419550  92.9518700  22.2097900  80.9496070  94.8385190  20.9632480
  81.4574290  95.3366160  21.6037500  81.4809310  94.0620390  20.7871840
  79.2332170  89.4783750  25.2295900  79.2350610  89.9956140  24.4241800
  78.4036480  89.0013930  25.2065830  88.9968930  92.9324010  20.8745740
  88.2924500  93.2208900  21.4548850  89.3581090  93.7424120  20.5145300
  78.9147500  91.1893710  23.2366350  79.2564310  92.0335760  22.9420220
  77.9763310  91.3377450  23.3531690  82.5975390  88.6775980  19.5610940
  82.9050370  88.1222870  18.8446440  81.6676090  88.8120440  19.3783930
  84.9856150  96.7424810  16.2971060  84.0585430  96.6762190  16.5259530
  85.1380970  97.6804940  16.1826300  84.9725230  93.0141810  13.2938220
  84.0328900  93.1755770  13.3790680  85.2908490  93.7327490  12.7474210
  89.0153440  98.3045110  16.8006310  88.3965860  97.9664660  16.1532610
  88.9977890  97.6604870  17.5085500  88.4580000  94.4829650  24.2172120
  88.0451180  95.3083360  24.4712110  87.7255950  93.8974690  24.0248480
  80.5912790  97.2689550  19.0790790  80.1869790  96.5566800  18.5836690
  80.6775910  96.9242790  19.9678830  79.3041410  94.0432760  22.8589830
  79.8556000  94.1528100  22.0843080  79.8184920  94.4170360  23.5745060
  87.1918140  97.5431920  13.8079060  87.6311420  96.7054350  13.6616880
  87.9046560  98.1761320  13.8943200  78.9784140  97.5652120  26.4695170
  78.8391910  98.4374920  26.8382570  78.0965500  97.2224930  26.3243110
  77.2917420  96.1634530  16.5797440  77.1715020  96.8896620  15.9678710
  76.9818310  95.3937440  16.1025350  79.7581080  89.5069600  19.9621110
  79.3149230  90.2879140  19.6305630  80.3166070  89.8299490  20.6692050
  84.0450890  92.3738120  25.5656430  83.5830260  92.5821140  26.3776370
  83.6429000  91.5597470  25.2627100  89.0455400  93.5947070  26.6953090
  88.1948990  93.2952820  27.0162160  88.8857190  93.8389080  25.7836910
  86.1405110  95.0948820  28.7951880  86.4658520  94.2612570  28.4554110
  86.9285440  95.6177340  28.9430210  82.8739900  89.1280300  14.8426940
  82.2494080  89.1240170  15.5680250  82.7870020  88.2611260  14.4462910
  81.7956980  90.0516930  21.8210710  82.0929310  90.9579760  21.7402730
  82.3442540  89.5635710  21.2070280  79.5495300  94.6303170  17.6902360
  79.3236220  94.4140340  18.5948980  78.7687830  95.0631630  17.3448330
  86.7793060  94.6366540  16.2893010  86.1801950  95.3602340  16.1056630
  87.3272670  94.5743320  15.5069460  81.9894510  95.5288750  28.3562630
  81.8938110  94.5883480  28.2063030  82.8326490  95.7503820  27.9610700
  85.3857930  93.2730080  18.3196290  85.7787500  93.5902280  17.5064980
  85.7474780  92.3941960  18.4340810  77.1205050  91.9402420  26.5096410
  76.7268440  92.7877630  26.7169190  76.4323450  91.3028790  26.7005050
  83.6950100  92.0237390  29.5793150  83.0048420  91.8309590  30.2139240
  84.4382400  92.3072030  30.1117450  74.4222100  89.8630880  20.5426490
  74.1335150  90.4333740  21.2551470  75.1667860  89.3835330  20.9057720
  74.6092330  93.8051000  11.7529210  74.5267000  94.7481760  11.8944200
  74.2575390  93.6625910  10.8741560  85.9713070  95.8635830  22.4147070
  85.2394190  96.3722640  22.7637170  85.5737410  95.0465810  22.1135850
  82.4090460  92.5390030  20.8199560  82.4126520  92.0979980  19.9704100
  83.3041580  92.8607360  20.9271380  78.2592840  92.4216520  19.7793770
  77.9192890  92.8991750  20.5360820  77.4970160  91.9681640  19.4194870
  82.4710610  93.5402110  13.8106320  82.5923430  93.4988590  14.7592140
  82.0859120  94.4026260  13.6553050  86.4338980  91.3169510  21.8270010
  86.4511720  91.7678160  22.6711860  86.1854560  90.4175150  22.0403450
  81.4832110  95.8503250  13.2089620  80.9149010  95.4021500  12.5825530
  82.1921110  96.2096030  12.6754770  89.8609730  88.7301690  27.6656390
  90.1855500  87.9991350  28.1914370  89.8966240  88.4115330  26.7637380
  82.7098430  96.5991810  22.5664970  83.0768560  96.1250380  23.3126310
  82.5203490  97.4733380  22.9073310  75.5738920  91.3435500  18.6958440
  75.2885840  90.9791170  19.5337060  75.5117780  90.6115960  18.0821580
  80.4997800  95.6400450  24.8849180  80.1954870  96.5192430  25.1099540
  81.4544260  95.7000240  24.9206620  85.2477510  90.2364760  15.4171810
  84.4342120  89.7377930  15.3417120  85.0539460  91.0763010  15.0008160
  87.9625900  94.6084410  13.7133970  88.8505520  94.9201640  13.5385310
  87.9330990  93.7356660  13.3214550  76.5561530  96.4803190  26.0320540
  76.1976470  97.1457040  26.6193880  76.2616090  95.6486740  26.4033160
  79.7574650  96.9387430  28.9160090  79.4574790  97.0844610  28.0187910
  80.5285890  96.3792720  28.8233480  75.0669580  96.4794450  12.6555140
  75.9364430  96.7619250  12.9391060  74.5759900  97.2930320  12.5403950
  82.2304390  97.8667660  16.7763420  82.6867170  98.6772910  17.0023610
  81.8792600  97.5490800  17.6081910  78.1316170  88.2105310  17.2485940
  78.0030800  88.2023210  18.1970860  77.3078190  88.5488400  16.8976950
  75.1310100  89.9696430  26.7092640  74.4168620  90.1693350  27.3145250
  75.5505140  89.1936000  27.0807440  86.6248880  92.4618740  24.4594090
  86.9929700  91.6413950  24.7873660  85.7647080  92.5220630  24.8749740
  89.9910910  91.4175680  15.2681650  89.3624070  91.5221350  14.5539880
  89.4962830  91.6372460  16.0575530  81.9594940  93.6961630  16.6839530
  81.2511090  94.1647970  17.1253140  82.2439420  93.0383640  17.3184720
  83.5850870  95.1158330  24.6832060  84.0836120  95.5904150  25.3483910
  83.7273820  94.1921850  24.8902090  85.9910370  90.4212290  18.1235320
  85.8678150  90.4398420  17.1744830  86.9394930  90.4691230  18.2433720
  80.1629960  92.0046710  14.0590240  81.0120490  92.4416860  13.9930430
  79.7961230  92.3166970  14.8862300  89.0839740  96.5759470  18.9721810
  88.1429880  96.5909700  19.1469500  89.3983810  95.7895430  19.4182110
  79.0621380  98.2579070  12.5325770  79.8284650  98.1460430  13.0951200
  79.1396070  97.5617040  11.8802540  77.7568140  95.6904140  13.2158660
  77.8371730  94.7431650  13.3276060  78.6487890  96.0211020  13.3219320
  75.2838940  97.5119060  28.4514830  75.7877960  96.9326340  29.0231060
  74.5446360  97.7959290  28.9891200  77.3162020  95.6548650  29.3464900
  77.3567360  95.3562520  30.2550130  78.1707520  96.0556260  29.1872420
  81.0940410  98.2544200  14.5068410  81.5156830  98.0884070  15.3499800
  81.2191250  97.4444430  14.0123550  79.2567830  94.2340750  27.3139390
  78.7264290  93.7431700  26.6862730  79.9255900  94.6624950  26.7797320
  83.6068050  97.2781810  11.7545510  84.1273710  96.5630830  11.3886660
  84.2536450  97.9167680  12.0546020  88.6268060  96.0406370  29.0819730
  89.2088830  95.2858690  28.9940210  88.8029830  96.5713810  28.3051210
  79.7440130  91.2003120  27.3936680  79.6497000  90.5823870  26.6687550
  79.1637520  91.9269410  27.1666590  82.5101570  89.7576360  24.4264070
  82.0618870  89.7800620  23.5809620  81.8766770  89.3595380  25.0234370
  85.2525020  96.3846870  26.4314350  85.3721230  95.7888010  27.1709190
  86.1119020  96.4216560  26.0115650  87.5912920  96.9384060  25.0076860
  87.0648140  97.4626680  24.4042000  87.9344260  97.5711450  25.6386590
  79.9899310  94.3277430  11.4526570  79.7888370  93.4644790  11.8139910
  79.8191360  94.2410790  10.5148170  82.0193790  92.9268220  27.6890170
  82.6093480  92.6184070  28.3767990  81.2014030  92.4547970  27.8450070
  86.8387220  92.5434030  27.9223190  86.1502740  91.8815570  27.8573180
  87.5593240  92.0972300  28.3671650  87.4687620  89.1385660  13.9813450
  87.7489910  88.2953560  14.3372870  86.6953350  89.3708770  14.4952200
  78.7882110  91.4278050  11.4404450  79.0908010  91.4345480  10.5323600
  79.5276700  91.0775910  11.9372110  82.0067040  90.3712670  12.4260650
  81.6589040  89.6936660  11.8463100  82.2079810  89.9102180  13.2404040
  75.3472680  96.9000320  18.8225020  74.6921520  96.6311960  18.1784720
  76.1850630  96.7904800  18.3727000  88.2963120  91.6941610  13.0443510
  88.7148000  91.5072590  12.2040170  87.9899180  90.8420660  13.3546440
  76.3848610  97.2852890  23.3628360  76.7521650  97.1980290  24.2424380
  75.8159430  96.5219440  23.2635220  75.9364610  94.1961980  27.2686780
  75.0420660  94.1628740  27.6080490  76.4762160  94.3948770  28.0338030
  74.5610760  94.1099250  14.7650350  73.6574840  94.3729450  14.5902010
  75.0451380  94.3810420  13.9850310  77.1037970  93.1664790  12.6744730
  77.8129670  92.7448010  12.1892010  76.3877910  93.2340020  12.0428080
  76.7512130  89.2204120  11.7147380  77.4740260  89.7613060  12.0328600
  77.0236650  88.9467540  10.8388920  76.4404320  88.4710310  21.6170000
  77.0880510  87.9207690  21.1765160  76.8606160  88.7253460  22.4385810
  76.1936320  88.6265980  24.3595320  75.8451140  89.0829800  25.1253500
  75.8624020  87.7323110  24.4417750  83.7061140  89.8177860  27.8814740
  83.6450030  90.4099690  28.6310150  84.6461520  89.7103820  27.7365000
  86.3435700  89.4747920  27.5207030  86.9576110  89.7927210  26.8588110
  86.8885260  88.9896510  28.1402890  76.8656960  88.1542180  27.6346090
  77.4139950  87.9730230  26.8712200  76.9312270  87.3636290  28.1702400
  87.0843740  88.0380060  23.8476320  86.2103580  88.3715170  23.6449250
  86.9754490  87.5653240  24.6728190  87.9915720  90.2450930  25.2318040
  87.6629080  89.4302690  24.8519770  88.9398020  90.2020740  25.1083730
  84.8318560  88.9549900  22.7869230  84.0490350  89.4295400  23.0665990
  84.5381490  88.0504730  22.6782410  89.3839630  89.6573000  20.8318320
  89.8247720  89.6018100  19.9839920  89.1147220  90.5731010  20.9028500
  76.1758970  89.2597380  15.3082950  76.9338330  89.3726260  14.7346980
  75.7136140  90.0966580  15.2626380  82.7172780  91.3736650  18.2985260
  81.9047290  90.9993540  17.9581140  83.2214420  90.6181730  18.6006450
  87.2197760  88.0379100  19.5368330  87.8227130  88.6099310  20.0116850
  86.4790750  88.6018540  19.3142230  78.5484120  89.7861430  13.8484920
  79.0776880  88.9991230  13.7192870  79.1812440  90.4652620  14.0820450
  80.7421960  89.5236570  16.9030310  80.1124700  88.8223880  17.0700440
  80.2027100  90.2840700  16.6863470  80.8677520  88.8020550  29.3382800
  80.5861790  89.3054150  28.5743620  81.2497220  88.0042300  28.9724930
  87.4692980  88.2174130  29.9163270  87.3558430  88.5368740  30.8114790
  88.2862720  88.6186640  29.6200550  84.5069170  98.0145620   2.1607280
  83.7311270  97.5346060   2.4505850  85.1582100  97.3351270   1.9863440
  78.5235000  98.3265430   3.0383040  77.6919880  98.0714140   3.4379550
  79.1315980  98.3976200   3.7740960  74.8959960  95.8872970   2.7065130
  75.4676070  95.1195170   2.7068770  74.8961500  96.1861730   1.7971740
  76.1384830  91.2957330   4.4934060  75.9587670  90.3983080   4.7736820
  75.7364910  91.8429200   5.1681010  84.9783330  93.4973190   2.3946370
  85.3548150  92.6245070   2.2820040  84.8802840  93.8331890   1.5036810
  76.7571500  93.7917830   3.1016400  77.4381610  94.0556200   3.7203800
  76.4419550  92.9518700   3.4354410  80.9496070  94.8385190   2.1888990
  81.4574290  95.3366160   2.8294010  81.4809310  94.0620390   2.0128350
  79.2332170  89.4783750   6.4552410  79.2350610  89.9956140   5.6498310
  78.4036480  89.0013930   6.4322340  88.9968930  92.9324010   2.1002250
  88.2924500  93.2208900   2.6805360  89.3581090  93.7424120   1.7401810
  78.9147500  91.1893710   4.4622860  79.2564310  92.0335760   4.1676730
  77.9763310  91.3377450   4.5788200  88.4580000  94.4829650   5.4428630
  88.0451180  95.3083360   5.6968620  87.7255950  93.8974690   5.2504990
  79.3041410  94.0432760   4.0846340  79.8556000  94.1528100   3.3099590
  79.8184920  94.4170360   4.8001570  78.9784140  97.5652120   7.6951680
  78.8391910  98.4374920   8.0639080  78.0965500  97.2224930   7.5499620
  84.0450890  92.3738120   6.7912940  83.5830260  92.5821140   7.6032880
  83.6429000  91.5597470   6.4883610  89.0455400  93.5947070   7.9209600
  88.1948990  93.2952820   8.2418670  88.8857190  93.8389080   7.0093420
  86.1405110  95.0948820  10.0208390  86.4658520  94.2612570   9.6810620
  86.9285440  95.6177340  10.1686720  81.7956980  90.0516930   3.0467220
  82.0929310  90.9579760   2.9659240  82.3442540  89.5635710   2.4326790
  81.9894510  95.5288750   9.5819140  81.8938110  94.5883480   9.4319540
  82.8326490  95.7503820   9.1867210  77.1205050  91.9402420   7.7352920
  76.7268440  92.7877630   7.9425700  76.4323450  91.3028790   7.9261560
  83.6950100  92.0237390  10.8049660  83.0048420  91.8309590  11.4395750
  84.4382400  92.3072030  11.3373960  74.4222100  89.8630880   1.7683000
  74.1335150  90.4333740   2.4807980  75.1667860  89.3835330   2.1314230
  85.9713070  95.8635830   3.6403580  85.2394190  96.3722640   3.9893680
  85.5737410  95.0465810   3.3392360  86.4338980  91.3169510   3.0526520
  86.4511720  91.7678160   3.8968370  86.1854560  90.4175150   3.2659960
  89.8609730  88.7301690   8.8912900  90.1855500  87.9991350   9.4170880
  89.8966240  88.4115330   7.9893890  82.7098430  96.5991810   3.7921480
  83.0768560  96.1250380   4.5382820  82.5203490  97.4733380   4.1329820
  80.4997800  95.6400450   6.1105690  80.1954870  96.5192430   6.3356050
  81.4544260  95.7000240   6.1463130  76.5561530  96.4803190   7.2577050
  76.1976470  97.1457040   7.8450390  76.2616090  95.6486740   7.6289670
  79.7574650  96.9387430  10.1416600  79.4574790  97.0844610   9.2444420
  80.5285890  96.3792720  10.0489990  75.1310100  89.9696430   7.9349150
  74.4168620  90.1693350   8.5401760  75.5505140  89.1936000   8.3063950
  86.6248880  92.4618740   5.6850600  86.9929700  91.6413950   6.0130170
  85.7647080  92.5220630   6.1006250  83.5850870  95.1158330   5.9088570
  84.0836120  95.5904150   6.5740420  83.7273820  94.1921850   6.1158600
  75.2838940  97.5119060   9.6771340  75.7877960  96.9326340  10.2487570
  74.5446360  97.7959290  10.2147710  77.3162020  95.6548650  10.5721410
  77.3567360  95.3562520  11.4806640  78.1707520  96.0556260  10.4128930
  79.2567830  94.2340750   8.5395900  78.7264290  93.7431700   7.9119240
  79.9255900  94.6624950   8.0053830  88.6268060  96.0406370  10.3076240
  89.2088830  95.2858690  10.2196720  88.8029830  96.5713810   9.5307720
  79.7440130  91.2003120   8.6193190  79.6497000  90.5823870   7.8944060
  79.1637520  91.9269410   8.3923100  82.5101570  89.7576360   5.6520580
  82.0618870  89.7800620   4.8066130  81.8766770  89.3595380   6.2490880
  85.2525020  96.3846870   7.6570860  85.3721230  95.7888010   8.3965700
  86.1119020  96.4216560   7.2372160  87.5912920  96.9384060   6.2333370
  87.0648140  97.4626680   5.6298510  87.9344260  97.5711450   6.8643100
  82.0193790  92.9268220   8.9146680  82.6093480  92.6184070   9.6024500
  81.2014030  92.4547970   9.0706580  86.8387220  92.5434030   9.1479700
  86.1502740  91.8815570   9.0829690  87.5593240  92.0972300   9.5928160
  76.3848610  97.2852890   4.5884870  76.7521650  97.1980290   5.4680890
  75.8159430  96.5219440   4.4891730  75.9364610  94.1961980   8.4943290
  75.0420660  94.1628740   8.8337000  76.4762160  94.3948770   9.2594540
  76.4404320  88.4710310   2.8426510  77.0880510  87.9207690   2.4021670
  76.8606160  88.7253460   3.6642320  76.1936320  88.6265980   5.5851830
  75.8451140  89.0829800   6.3510010  75.8624020  87.7323110   5.6674260
  83.7061140  89.8177860   9.1071250  83.6450030  90.4099690   9.8566660
  84.6461520  89.7103820   8.9621510  86.3435700  89.4747920   8.7463540
  86.9576110  89.7927210   8.0844620  86.8885260  88.9896510   9.3659400
  76.8656960  88.1542180   8.8602600  77.4139950  87.9730230   8.0968710
  76.9312270  87.3636290   9.3958910  87.0843740  88.0380060   5.0732830
  86.2103580  88.3715170   4.8705760  86.9754490  87.5653240   5.8984700
  87.9915720  90.2450930   6.4574550  87.6629080  89.4302690   6.0776280
  88.9398020  90.2020740   6.3340240  84.8318560  88.9549900   4.0125740
  84.0490350  89.4295400   4.2922500  84.5381490  88.0504730   3.9038920
  80.8677520  88.8020550  10.5639310  80.5861790  89.3054150   9.8000130
  81.2497220  88.0042300  10.1981440  87.4692980  88.2174130  11.1419780
  87.3558430  88.5368740  12.0371300  88.2862720  88.6186640  10.8457060
  86.3751130  77.4623110  56.6028480  86.2945180  76.5477720  56.3320190
  85.9615550  77.9590180  55.8968190  88.5276600  83.6462320  57.2636880
  88.0658130  82.8749560  57.5924050  89.3402150  83.6728390  57.7689330
  76.9326950  74.5123830  53.1455900  76.0443650  74.8539800  53.0435780
  77.2168140  74.3124150  52.2536730  84.7539910  85.9320330  56.8840870
  84.1351350  86.3877830  56.3135310  85.6091690  86.0871790  56.4830570
  79.1088340  73.0955330  54.1794280  79.2155090  73.9959060  54.4863040
  78.1980700  73.0473300  53.8888930  88.7607450  72.2180140  55.6505180
  89.5817070  71.7276710  55.6930660  88.7941530  72.8077800  56.4037020
  85.6203260  80.8159570  54.2772780  85.0020530  81.2809020  53.7135500
  86.1326510  81.5087050  54.6942290  74.9886460  81.5016100  51.6512410
  74.6114440  81.9903200  50.9197310  75.2459530  82.1741380  52.2818940
  82.5975390  69.9032490  57.1097920  82.9050370  69.3479380  56.3933420
  81.6676090  70.0376950  56.9270910  89.4435870  82.3416000  54.4895550
  89.3332200  81.3990330  54.6144970  89.4404120  82.7031640  55.3758310
  84.9856150  77.9681320  53.8458040  84.0585430  77.9018700  54.0746510
  85.1380970  78.9061450  53.7313280  84.9725230  74.2398320  50.8425200
  84.0328900  74.4012280  50.9277660  85.2908490  74.9584000  50.2961190
  89.0153440  79.5301620  54.3493290  88.3965860  79.1921170  53.7019590
  88.9977890  78.8861380  55.0572480  80.5912790  78.4946060  56.6277770
  80.1869790  77.7823310  56.1323670  80.6775910  78.1499300  57.5165810
  87.1918140  78.7688430  51.3566040  87.6311420  77.9310860  51.2103860
  87.9046560  79.4017830  51.4430180  85.3013520  83.7084500  55.3247280
  85.7409430  84.4508830  54.9102670  85.2400410  83.9511070  56.2486240
  77.2917420  77.3891040  54.1284420  77.1715020  78.1153130  53.5165690
  76.9818310  76.6193950  53.6512330  76.1750420  82.2606370  56.3459240
  75.7678500  82.4020960  55.4912840  77.0663430  81.9766530  56.1430450
  87.9683700  86.6953620  52.6810290  87.8084840  86.4056560  53.5792120
  87.8030410  85.9193750  52.1455520  80.4472080  86.4752150  54.4581910
  80.2714560  85.5587690  54.2449710  79.5927820  86.8339440  54.6979710
  87.6709830  84.2041180  51.2408290  86.9774990  84.2018470  50.5810570
  88.4132690  83.7800500  50.8102460  87.2359760  85.8303890  55.3156780
  87.6916710  85.0493270  55.6295400  87.5752280  86.5410710  55.8597960
  79.7581080  70.7326110  57.5108090  79.3149230  71.5135650  57.1792610
  80.3166070  71.0556000  58.2179030  82.8739900  70.3536810  52.3913920
  82.2494080  70.3496680  53.1167230  82.7870020  69.4867770  51.9949890
  79.5495300  75.8559680  55.2389340  79.3236220  75.6396850  56.1435960
  78.7687830  76.2888140  54.8935310  86.7793060  75.8623050  53.8379990
  86.1801950  76.5858850  53.6543610  87.3272670  75.7999830  53.0556440
  85.3857930  74.4986590  55.8683270  85.7787500  74.8158790  55.0551960
  85.7474780  73.6198470  55.9827790  74.6092330  75.0307510  49.3016190
  74.5267000  75.9738270  49.4431180  74.2575390  74.8882420  48.4228540
  82.4090460  73.7646540  58.3686540  82.4126520  73.3236490  57.5191080
  83.3041580  74.0863870  58.4758360  78.2592840  73.6473030  57.3280750
  77.9192890  74.1248260  58.0847800  77.4970160  73.1938150  56.9681850
  82.4710610  74.7658620  51.3593300  82.5923430  74.7245100  52.3079120
  82.0859120  75.6282770  51.2040030  81.4832110  77.0759760  50.7576600
  80.9149010  76.6278010  50.1312510  82.1921110  77.4352540  50.2241750
  75.5738920  72.5692010  56.2445420  75.2885840  72.2047680  57.0824040
  75.5117780  71.8372470  55.6308560  79.0279590  81.0717950  53.0303010
  78.2541850  80.5315570  52.8701730  79.7574220  80.5524560  52.6920770
  85.2477510  71.4621270  52.9658790  84.4342120  70.9634440  52.8904100
  85.0539460  72.3019520  52.5495140  87.9625900  75.8340920  51.2620950
  88.8505520  76.1458150  51.0872290  87.9330990  74.9613170  50.8701530
  79.0716990  80.7398330  56.6681820  79.5895660  79.9366590  56.6138710
  78.6201010  80.6777470  57.5098650  83.9586490  82.0064610  51.9409120
  84.3002190  82.7506840  51.4452440  83.1299200  82.3195730  52.3033950
  86.8413900  81.3280450  57.3054630  87.1937720  80.7308580  56.6456000
  85.9576230  81.0024680  57.4762880  82.9277180  82.0878140  54.7125040
  83.6148310  82.6347350  55.0932630  82.1409600  82.6318870  54.7474650
  75.0669580  77.7050960  50.2042120  75.9364430  77.9875760  50.4878040
  74.5759900  78.5186830  50.0890930  82.2304390  79.0924170  54.3250400
  82.6867170  79.9029420  54.5510590  81.8792600  78.7747310  55.1568890
  78.1316170  69.4361820  54.7972920  78.0030800  69.4279720  55.7457840
  77.3078190  69.7744910  54.4463930  89.6524800  82.8911480  49.9959290
  89.4262380  82.1741920  50.5883930  89.2621000  82.6423920  49.1581040
  75.4340830  86.9178340  50.7703750  75.7938470  87.5167680  50.1161020
  75.2933170  87.4638230  51.5438780  89.2341050  80.8083420  51.6573450
  88.9462750  81.2696110  52.4451330  90.0293220  80.3481190  51.9257670
  81.4509450  84.3009540  51.5877420  81.4419550  85.0339230  50.9721930
  80.5307810  84.0541120  51.6804380  77.0516090  79.5224430  52.3324180
  76.4444040  80.2623330  52.3419480  77.5265440  79.6123790  51.5062380
  89.9910910  72.6432190  52.8168630  89.3624070  72.7477860  52.1026860
  89.4962830  72.8628970  53.6062510  84.4369050  84.3637780  50.2502610
  84.5381030  84.1601770  49.3204590  83.5370790  84.1096060  50.4550390
  81.9594940  74.9218140  54.2326510  81.2511090  75.3904480  54.6740120
  82.2439420  74.2640150  54.8671700  85.9910370  71.6468800  55.6722300
  85.8678150  71.6654930  54.7231810  86.9394930  71.6947740  55.7920700
  83.0787160  86.8824100  54.9450280  83.3328660  86.8445490  54.0229650
  82.1299640  86.7557430  54.9378530  80.1629960  73.2303220  51.6077220
  81.0120490  73.6673370  51.5417410  79.7961230  73.5423480  52.4349280
  89.0839740  77.8015980  56.5208790  88.1429880  77.8166210  56.6956480
  89.3983810  77.0151940  56.9669090  79.0621380  79.4835580  50.0812750
  79.8284650  79.3716940  50.6438180  79.1396070  78.7873550  49.4289520
  77.7568140  76.9160650  50.7645640  77.8371730  75.9688160  50.8763040
  78.6487890  77.2467530  50.8706300  78.5582850  87.0656040  57.8680180
  79.2945330  86.5171500  58.1388750  78.9423770  87.9312050  57.7286170
  75.4428330  83.1329610  53.7421690  74.5168110  83.3750750  53.7327100
  75.9084760  83.9603870  53.6206440  81.6685160  86.2386350  49.6905750
  82.4613770  86.5275180  49.2387540  81.1489510  85.8078520  49.0118230
  82.1862560  81.4589760  49.5548100  82.0813200  80.8442110  50.2809480
  82.0186780  80.9355650  48.7711110  85.4265290  80.5209790  50.1590090
  84.8775390  80.9679090  50.8032830  86.0484550  80.0159040  50.6827760
  81.0940410  79.4800710  52.0555390  81.5156830  79.3140580  52.8986780
  81.2191250  78.6700940  51.5610530  83.6068050  78.5038320  49.3032490
  84.1273710  77.7887340  48.9373640  84.2536450  79.1424190  49.6033000
  79.9899310  75.5533940  49.0013550  79.7888370  74.6901300  49.3626890
  79.8191360  75.4667300  48.0635150  87.4687620  70.3642170  51.5300430
  87.7489910  69.5210070  51.8859850  86.6953350  70.5965280  52.0439180
  78.7882110  72.6534560  48.9891430  79.0908010  72.6601990  48.0810580
  79.5276700  72.3032420  49.4859090  82.0067040  71.5969180  49.9747630
  81.6589040  70.9193170  49.3950080  82.2079810  71.1358690  50.7891020
  84.1716080  86.5849930  51.5934230  85.0666870  86.9234900  51.6152990
  84.2033710  85.8629340  50.9658510  77.8112240  81.9576980  49.8221230
  78.2487110  82.5006650  50.4778810  78.2959970  81.1323930  49.8317570
  75.0258040  84.7466010  57.2741490  75.3561050  83.8787070  57.0420130
  75.4549040  84.9524530  58.1046450  79.6219960  83.0775020  54.9343460
  79.3215500  82.9539990  55.8347370  79.5157450  82.2183610  54.5259190
  75.3472680  78.1256830  56.3712000  74.6921520  77.8568470  55.7271700
  76.1850630  78.0161310  55.9213980  88.2963120  72.9198120  50.5930490
  88.7148000  72.7329100  49.7527150  87.9899180  72.0677170  50.9033420
  74.5610760  75.3355760  52.3137330  73.6574840  75.5985960  52.1388990
  75.0451380  75.6066930  51.5337290  77.1037970  74.3921300  50.2231710
  77.8129670  73.9704520  49.7378990  76.3877910  74.4596530  49.5915060
  76.7512130  70.4460630  49.2634360  77.4740260  70.9869570  49.5815580
  77.0236650  70.1724050  48.3875900  89.3839630  70.8829510  58.3805300
  89.8247720  70.8274610  57.5326900  89.1147220  71.7987520  58.4515480
  75.5530950  86.6537110  55.3538070  75.3852990  86.0207790  56.0519960
  74.6865460  86.8596510  55.0032260  76.1758970  70.4853890  52.8569930
  76.9338330  70.5982770  52.2833960  75.7136140  71.3223090  52.8113360
  82.7172780  72.5993160  55.8472240  81.9047290  72.2250050  55.5068120
  83.2214420  71.8438240  56.1493430  87.2197760  69.2635610  57.0855310
  87.8227130  69.8355820  57.5603830  86.4790750  69.8275050  56.8629210
  77.1593650  85.3470340  52.7988210  76.6341270  85.7278370  52.0950170
  77.0838230  85.9721110  53.5197920  78.5484120  71.0117940  51.3971900
  79.0776880  70.2247740  51.2679850  79.1812440  71.6909130  51.6307430
  80.7421960  70.7493080  54.4517290  80.1124700  70.0480390  54.6187420
  80.2027100  71.5097210  54.2350450  79.7586620  87.2952720  51.6737460
  80.4905440  87.0112000  51.1261350  80.0180290  87.0566000  52.5636840
  78.9201410  83.4117450  51.6783790  78.2910290  83.8802550  52.2269620
  79.0349240  82.5666670  52.1129980  86.3751130  77.4623110  37.8284990
  86.2945180  76.5477720  37.5576700  85.9615550  77.9590180  37.1224700
  84.5069170  79.2402130  39.7094260  83.7311270  78.7602570  39.9992830
  85.1582100  78.5607780  39.5350420  78.5235000  79.5521940  40.5870020
  77.6919880  79.2970650  40.9866530  79.1315980  79.6232710  41.3227940
  88.5276600  83.6462320  38.4893390  88.0658130  82.8749560  38.8180560
  89.3402150  83.6728390  38.9945840  78.5036260  83.5862030  40.7828040
  78.8064300  82.6959770  40.6038260  79.2479850  84.1432250  40.5550290
  76.9326950  74.5123830  34.3712410  76.0443650  74.8539800  34.2692290
  77.2168140  74.3124150  33.4793240  74.8959960  77.1129480  40.2552110
  75.4676070  76.3451680  40.2555750  74.8961500  77.4118240  39.3458720
  84.7539910  85.9320330  38.1097380  84.1351350  86.3877830  37.5391820
  85.6091690  86.0871790  37.7087080  83.9478160  81.9159320  39.7164420
  83.8786440  80.9749260  39.5553550  84.7098020  82.0060730  40.2886990
  76.1384830  72.5213840  42.0421040  75.9587670  71.6239590  42.3223800
  75.7364910  73.0685710  42.7167990  84.9783330  74.7229700  39.9433350
  85.3548150  73.8501580  39.8307020  84.8802840  75.0588400  39.0523790
  79.1088340  73.0955330  35.4050790  79.2155090  73.9959060  35.7119550
  78.1980700  73.0473300  35.1145440  88.7607450  72.2180140  36.8761690
  89.5817070  71.7276710  36.9187170  88.7941530  72.8077800  37.6293530
  76.7571500  75.0174340  40.6503380  77.4381610  75.2812710  41.2690780
  76.4419550  74.1775210  40.9841390  80.9496070  76.0641700  39.7375970
  81.4574290  76.5622670  40.3780990  81.4809310  75.2876900  39.5615330
  79.2332170  70.7040260  44.0039390  79.2350610  71.2212650  43.1985290
  78.4036480  70.2270440  43.9809320  85.6203260  80.8159570  35.5029290
  85.0020530  81.2809020  34.9392010  86.1326510  81.5087050  35.9198800
  80.4835020  80.3435440  42.1812890  80.1504400  80.9704360  42.8233960
  80.6601700  80.8697320  41.4014560  88.9968930  74.1580520  39.6489230
  88.2924500  74.4465410  40.2292340  89.3581090  74.9680630  39.2888790
  78.9147500  72.4150220  42.0109840  79.2564310  73.2592270  41.7163710
  77.9763310  72.5633960  42.1275180  79.6954120  82.3116240  43.9962070
  80.3128120  82.9867320  43.7146520  78.8347240  82.7204220  43.9049570
  74.9886460  81.5016100  32.8768920  74.6114440  81.9903200  32.1453820
  75.2459530  82.1741380  33.5075450  82.5975390  69.9032490  38.3354430
  82.9050370  69.3479380  37.6189930  81.6676090  70.0376950  38.1527420
  88.1490450  85.6199780  40.6261890  88.1617610  85.2162070  39.7584150
  87.5965670  86.3947070  40.5223320  89.4435870  82.3416000  35.7152060
  89.3332200  81.3990330  35.8401480  89.4404120  82.7031640  36.6014820
  87.5475890  80.5229620  41.9544500  87.9644680  80.3089730  41.1197960
  88.2715710  80.7802410  42.5253120  84.9856150  77.9681320  35.0714550
  84.0585430  77.9018700  35.3003020  85.1380970  78.9061450  34.9569790
  84.9725230  74.2398320  32.0681710  84.0328900  74.4012280  32.1534170
  85.2908490  74.9584000  31.5217700  89.0153440  79.5301620  35.5749800
  88.3965860  79.1921170  34.9276100  88.9977890  78.8861380  36.2828990
  88.4580000  75.7086160  42.9915610  88.0451180  76.5339870  43.2455600
  87.7255950  75.1231200  42.7991970  80.5912790  78.4946060  37.8534280
  80.1869790  77.7823310  37.3580180  80.6775910  78.1499300  38.7422320
  81.0594490  82.1813620  40.0173490  80.7622780  81.5759090  39.3381270
  82.0094310  82.2190930  39.9062850  79.3041410  75.2689270  41.6333320
  79.8556000  75.3784610  40.8586570  79.8184920  75.6426870  42.3488550
  89.1480100  85.7545490  43.6796590  88.6710660  86.5617680  43.4869200
  88.4641890  85.1023820  43.8322800  80.1512920  81.9195310  46.6681290
  79.2541450  82.1435280  46.9154690  80.1765790  82.0430250  45.7192690
  87.1918140  78.7688430  32.5822550  87.6311420  77.9310860  32.4360370
  87.9046560  79.4017830  32.6686690  78.9784140  78.7908630  45.2438660
  78.8391910  79.6631430  45.6126060  78.0965500  78.4481440  45.0986600
  85.3013520  83.7084500  36.5503790  85.7409430  84.4508830  36.1359180
  85.2400410  83.9511070  37.4742750  80.7764490  84.7330330  47.4523810
  80.7479920  85.1373280  46.5852240  80.6129460  83.8040690  47.2895410
  77.2917420  77.3891040  35.3540930  77.1715020  78.1153130  34.7422200
  76.9818310  76.6193950  34.8768840  74.9302790  80.5606180  41.1609570
  75.0083210  80.6954950  40.2165290  75.5444470  79.8522070  41.3537690
  76.1750420  82.2606370  37.5715750  75.7678500  82.4020960  36.7169350
  77.0663430  81.9766530  37.3686960  85.9929300  86.4098280  44.4782800
  86.5073970  86.3206290  45.2805230  85.1498380  86.7557980  44.7710710
  87.9683700  86.6953620  33.9066800  87.8084840  86.4056560  34.8048630
  87.8030410  85.9193750  33.3712030  80.4472080  86.4752150  35.6838420
  80.2714560  85.5587690  35.4706220  79.5927820  86.8339440  35.9236220
  87.6709830  84.2041180  32.4664800  86.9774990  84.2018470  31.8067080
  88.4132690  83.7800500  32.0358970  87.2359760  85.8303890  36.5413290
  87.6916710  85.0493270  36.8551910  87.5752280  86.5410710  37.0854470
  74.9862310  81.6020350  43.7004030  75.1493350  81.1325710  42.8823400
  75.4514760  81.0943910  44.3652870  79.7581080  70.7326110  38.7364600
  79.3149230  71.5135650  38.4049120  80.3166070  71.0556000  39.4435540
  84.0450890  73.5994630  44.3399920  83.5830260  73.8077650  45.1519860
  83.6429000  72.7853980  44.0370590  89.0455400  74.8203580  45.4696580
  88.1948990  74.5209330  45.7905650  88.8857190  75.0645590  44.5580400
  86.1405110  76.3205330  47.5695370  86.4658520  75.4869080  47.2297600
  86.9285440  76.8433850  47.7173700  82.8739900  70.3536810  33.6170430
  82.2494080  70.3496680  34.3423740  82.7870020  69.4867770  33.2206400
  81.7956980  71.2773440  40.5954200  82.0929310  72.1836270  40.5146220
  82.3442540  70.7892220  39.9813770  79.5495300  75.8559680  36.4645850
  79.3236220  75.6396850  37.3692470  78.7687830  76.2888140  36.1191820
  86.7793060  75.8623050  35.0636500  86.1801950  76.5858850  34.8800120
  87.3272670  75.7999830  34.2812950  81.9894510  76.7545260  47.1306120
  81.8938110  75.8139990  46.9806520  82.8326490  76.9760330  46.7354190
  85.3857930  74.4986590  37.0939780  85.7787500  74.8158790  36.2808470
  85.7474780  73.6198470  37.2084300  77.1205050  73.1658930  45.2839900
  76.7268440  74.0134140  45.4912680  76.4323450  72.5285300  45.4748540
  83.6950100  73.2493900  48.3536640  83.0048420  73.0566100  48.9882730
  84.4382400  73.5328540  48.8860940  74.4222100  71.0887390  39.3169980
  74.1335150  71.6590250  40.0294960  75.1667860  70.6091840  39.6801210
  74.6092330  75.0307510  30.5272700  74.5267000  75.9738270  30.6687690
  74.2575390  74.8882420  29.6485050  85.9713070  77.0892340  41.1890560
  85.2394190  77.5979150  41.5380660  85.5737410  76.2722320  40.8879340
  82.4090460  73.7646540  39.5943050  82.4126520  73.3236490  38.7447590
  83.3041580  74.0863870  39.7014870  78.2592840  73.6473030  38.5537260
  77.9192890  74.1248260  39.3104310  77.4970160  73.1938150  38.1938360
  82.4710610  74.7658620  32.5849810  82.5923430  74.7245100  33.5335630
  82.0859120  75.6282770  32.4296540  86.4338980  72.5426020  40.6013500
  86.4511720  72.9934670  41.4455350  86.1854560  71.6431660  40.8146940
  81.4832110  77.0759760  31.9833110  80.9149010  76.6278010  31.3569020
  82.1921110  77.4352540  31.4498260  89.8609730  69.9558200  46.4399880
  90.1855500  69.2247860  46.9657860  89.8966240  69.6371840  45.5380870
  76.5601290  80.9771780  45.8599840  76.1756080  80.3365450  46.4582800
  76.8713480  81.6807900  46.4294570  82.7098430  77.8248320  41.3408460
  83.0768560  77.3506890  42.0869800  82.5203490  78.6989890  41.6816800
  75.5738920  72.5692010  37.4701930  75.2885840  72.2047680  38.3080550
  75.5117780  71.8372470  36.8565070  80.4997800  76.8656960  43.6592670
  80.1954870  77.7448940  43.8843030  81.4544260  76.9256750  43.6950110
  79.0279590  81.0717950  34.2559520  78.2541850  80.5315570  34.0958240
  79.7574220  80.5524560  33.9177280  85.2477510  71.4621270  34.1915300
  84.4342120  70.9634440  34.1160610  85.0539460  72.3019520  33.7751650
  85.1686370  80.1392370  45.9354910  85.1023680  79.2188040  45.6812500
  84.5391510  80.2367810  46.6499550  87.9625900  75.8340920  32.4877460
  88.8505520  76.1458150  32.3128800  87.9330990  74.9613170  32.0958040
  79.0716990  80.7398330  37.8938330  79.5895660  79.9366590  37.8395220
  78.6201010  80.6777470  38.7355160  83.9586490  82.0064610  33.1665630
  84.3002190  82.7506840  32.6708950  83.1299200  82.3195730  33.5290460
  76.5561530  77.7059700  44.8064030  76.1976470  78.3713550  45.3937370
  76.2616090  76.8743250  45.1776650  79.7574650  78.1643940  47.6903580
  79.4574790  78.3101120  46.7931400  80.5285890  77.6049230  47.5976970
  85.1003100  82.9612940  45.6858710  85.1147640  82.0293900  45.4677620
  84.3928200  83.0472700  46.3248480  86.8413900  81.3280450  38.5311140
  87.1937720  80.7308580  37.8712510  85.9576230  81.0024680  38.7019390
  82.9277180  82.0878140  35.9381550  83.6148310  82.6347350  36.3189140
  82.1409600  82.6318870  35.9731160  75.0669580  77.7050960  31.4298630
  75.9364430  77.9875760  31.7134550  74.5759900  78.5186830  31.3147440
  82.2304390  79.0924170  35.5506910  82.6867170  79.9029420  35.7767100
  81.8792600  78.7747310  36.3825400  84.5337000  84.6030510  42.7799210
  85.1779220  84.8089890  43.4572630  84.8966440  83.8418910  42.3270060
  78.1316170  69.4361820  36.0229430  78.0030800  69.4279720  36.9714350
  77.3078190  69.7744910  35.6720440  85.8069080  82.6062860  41.4976660
  86.4491310  81.9056020  41.6108830  86.3318430  83.3861300  41.3173550
  89.6524800  82.8911480  31.2215800  89.4262380  82.1741920  31.8140440
  89.2621000  82.6423920  30.3837550  87.5806700  83.4057760  44.7012720
  87.9162940  83.9924450  45.3790640  86.6607040  83.2750470  44.9310510
  75.4340830  86.9178340  31.9960260  75.7938470  87.5167680  31.3417530
  75.2933170  87.4638230  32.7695290  75.1310100  71.1952940  45.4836130
  74.4168620  71.3949860  46.0888740  75.5505140  70.4192510  45.8550930
  89.2341050  80.8083420  32.8829960  88.9462750  81.2696110  33.6707840
  90.0293220  80.3481190  33.1514180  75.4182690  85.1833200  46.4702660
  75.5273810  84.2427940  46.3298050  74.7663250  85.4487950  45.8216390
  83.4095280  83.4549090  47.8700780  83.0892150  82.7358330  48.4146470
  82.7353640  84.1304160  47.9436840  81.4509450  84.3009540  32.8133930
  81.4419550  85.0339230  32.1978440  80.5307810  84.0541120  32.9060890
  77.0516090  79.5224430  33.5580690  76.4444040  80.2623330  33.5675990
  77.5265440  79.6123790  32.7318890  86.6248880  73.6875250  43.2337580
  86.9929700  72.8670460  43.5617150  85.7647080  73.7477140  43.6493230
  89.9910910  72.6432190  34.0425140  89.3624070  72.7477860  33.3283370
  89.4962830  72.8628970  34.8319020  84.4369050  84.3637780  31.4759120
  84.5381030  84.1601770  30.5461100  83.5370790  84.1096060  31.6806900
  81.9594940  74.9218140  35.4583020  81.2511090  75.3904480  35.8996630
  82.2439420  74.2640150  36.0928210  83.5850870  76.3414840  43.4575550
  84.0836120  76.8160660  44.1227400  83.7273820  75.4178360  43.6645580
  85.9910370  71.6468800  36.8978810  85.8678150  71.6654930  35.9488320
  86.9394930  71.6947740  37.0177210  83.0787160  86.8824100  36.1706790
  83.3328660  86.8445490  35.2486160  82.1299640  86.7557430  36.1635040
  80.1629960  73.2303220  32.8333730  81.0120490  73.6673370  32.7673920
  79.7961230  73.5423480  33.6605790  89.0839740  77.8015980  37.7465300
  88.1429880  77.8166210  37.9212990  89.3983810  77.0151940  38.1925600
  79.0621380  79.4835580  31.3069260  79.8284650  79.3716940  31.8694690
  79.1396070  78.7873550  30.6546030  77.7568140  76.9160650  31.9902150
  77.8371730  75.9688160  32.1019550  78.6487890  77.2467530  32.0962810
  78.5582850  87.0656040  39.0936690  79.2945330  86.5171500  39.3645260
  78.9423770  87.9312050  38.9542680  75.4428330  83.1329610  34.9678200
  74.5168110  83.3750750  34.9583610  75.9084760  83.9603870  34.8462950
  77.5641130  86.2502110  48.2822270  78.3653860  86.5714160  48.6957670
  77.0492950  85.8897690  49.0042180  81.6685160  86.2386350  30.9162260
  82.4613770  86.5275180  30.4644050  81.1489510  85.8078520  30.2374740
  86.4005760  82.3581980  48.2297680  85.7943920  82.3813580  47.4893430
  86.0959870  81.6265020  48.7664930  87.8306130  86.0862270  46.8407090
  88.7827880  86.0020290  46.7907330  87.6834350  86.7503980  47.5140880
  75.2838940  78.7375570  47.2258320  75.7877960  78.1582850  47.7974550
  74.5446360  79.0215800  47.7634690  82.1862560  81.4589760  30.7804610
  82.0813200  80.8442110  31.5065990  82.0186780  80.9355650  29.9967620
  82.3376880  80.1446560  46.7593840  81.5722550  80.7131560  46.6748510
  82.5192840  79.8522770  45.8662070  85.4265290  80.5209790  31.3846600
  84.8775390  80.9679090  32.0289340  86.0484550  80.0159040  31.9084270
  89.4800230  81.8751890  47.3168860  90.2209700  82.2127650  46.8136320
  88.7172910  82.0443950  46.7638630  77.3162020  76.8805160  48.1208390
  77.3567360  76.5819030  49.0293620  78.1707520  77.2812770  47.9615910
  81.0940410  79.4800710  33.2811900  81.5156830  79.3140580  34.1243290
  81.2191250  78.6700940  32.7867040  79.2567830  75.4597260  46.0882880
  78.7264290  74.9688210  45.4606220  79.9255900  75.8881460  45.5540810
  83.6068050  78.5038320  30.5289000  84.1273710  77.7887340  30.1630150
  84.2536450  79.1424190  30.8289510  88.1545890  79.9266720  45.8524070
  88.5686910  80.0811800  46.7014490  87.2196890  80.0521940  46.0149850
  88.6268060  77.2662880  47.8563220  89.2088830  76.5115200  47.7683700
  88.8029830  77.7970320  47.0794700  79.7440130  72.4259630  46.1680170
  79.6497000  71.8080380  45.4431040  79.1637520  73.1525920  45.9410080
  82.5101570  70.9832870  43.2007560  82.0618870  71.0057130  42.3553110
  81.8766770  70.5851890  43.7977860  82.9161120  79.8787200  43.8220000
  83.3349230  80.7219930  43.6496240  81.9969750  80.0159240  43.5926780
  85.2525020  77.6103380  45.2057840  85.3721230  77.0144520  45.9452680
  86.1119020  77.6473070  44.7859140  87.5912920  78.1640570  43.7820350
  87.0648140  78.6883190  43.1785490  87.9344260  78.7967960  44.4130080
  79.9899310  75.5533940  30.2270060  79.7888370  74.6901300  30.5883400
  79.8191360  75.4667300  29.2891660  80.7668540  86.1840210  44.9377730
  80.2289630  86.9086270  44.6186430  81.0202500  85.7070550  44.1475070
  82.0193790  74.1524730  46.4633660  82.6093480  73.8440580  47.1511480
  81.2014030  73.6804480  46.6193560  86.8387220  73.7690540  46.6966680
  86.1502740  73.1072080  46.6316670  87.5593240  73.3228810  47.1415140
  87.4687620  70.3642170  32.7556940  87.7489910  69.5210070  33.1116360
  86.6953350  70.5965280  33.2695690  78.7882110  72.6534560  30.2147940
  79.0908010  72.6601990  29.3067090  79.5276700  72.3032420  30.7115600
  83.6230750  87.4191420  45.1964380  83.5489450  88.3226560  45.5036750
  82.7209590  87.1003320  45.1686450  82.0067040  71.5969180  31.2004140
  81.6589040  70.9193170  30.6206590  82.2079810  71.1358690  32.0147530
  84.1716080  86.5849930  32.8190740  85.0666870  86.9234900  32.8409500
  84.2033710  85.8629340  32.1915020  77.8112240  81.9576980  31.0477740
  78.2487110  82.5006650  31.7035320  78.2959970  81.1323930  31.0574080
  75.0258040  84.7466010  38.4998000  75.3561050  83.8787070  38.2676640
  75.4549040  84.9524530  39.3302960  79.6219960  83.0775020  36.1599970
  79.3215500  82.9539990  37.0603880  79.5157450  82.2183610  35.7515700
  75.5148250  85.6136600  41.2379630  75.0779240  85.7937400  42.0703780
  76.0825930  86.3711220  41.0961350  75.3472680  78.1256830  37.5968510
  74.6921520  77.8568470  36.9528210  76.1850630  78.0161310  37.1470490
  89.8362070  81.8405580  43.6233100  89.0221910  82.2702740  43.8858890
  90.2436270  82.4523990  43.0102150  88.2963120  72.9198120  31.8187000
  88.7148000  72.7329100  30.9783660  87.9899180  72.0677170  32.1289930
  76.3848610  78.5109400  42.1371850  76.7521650  78.4236800  43.0167870
  75.8159430  77.7475950  42.0378710  75.9364610  75.4218490  46.0430270
  75.0420660  75.3885250  46.3823980  76.4762160  75.6205280  46.8081520
  74.5610760  75.3355760  33.5393840  73.6574840  75.5985960  33.3645500
  75.0451380  75.6066930  32.7593800  77.1037970  74.3921300  31.4488220
  77.8129670  73.9704520  30.9635500  76.3877910  74.4596530  30.8171570
  76.7512130  70.4460630  30.4890870  77.4740260  70.9869570  30.8072090
  77.0236650  70.1724050  29.6132410  76.4404320  69.6966820  40.3913490
  77.0880510  69.1464200  39.9508650  76.8606160  69.9509970  41.2129300
  76.1936320  69.8522490  43.1338810  75.8451140  70.3086310  43.8996990
  75.8624020  68.9579620  43.2161240  77.8000690  83.0242090  47.2992000
  77.7570320  82.6535000  48.1806460  77.9311700  83.9619660  47.4393820
  81.5006720  84.5801680  42.9001720  81.2598080  84.8476240  42.0132240
  82.4409360  84.7507410  42.9552580  83.7061140  71.0434370  46.6558230
  83.6450030  71.6356200  47.4053640  84.6461520  70.9360330  46.5108490
  86.3435700  70.7004430  46.2950520  86.9576110  71.0183720  45.6331600
  86.8885260  70.2153020  46.9146380  76.8656960  69.3798690  46.4089580
  77.4139950  69.1986740  45.6455690  76.9312270  68.5892800  46.9445890
  77.6388720  85.9704340  44.4189780  77.0449040  85.8389040  45.1579820
  77.6312560  85.1342480  43.9531880  87.0843740  69.2636570  42.6219810
  86.2103580  69.5971680  42.4192740  86.9754490  68.7909750  43.4471680
  87.9915720  71.4707440  44.0061530  87.6629080  70.6559200  43.6263260
  88.9398020  71.4277250  43.8827220  77.2700950  83.3362720  43.3697820
  76.5435010  82.7168010  43.3023770  77.3310100  83.7303330  42.4995900
  80.8746050  85.5507720  40.1547230  81.3911070  84.9395080  39.6295490
  81.5243430  86.0536500  40.6458240  83.6141550  86.4416210  40.9816210
  83.9019360  86.1870510  40.1049220  84.1264770  85.8893570  41.5721780
  84.8318560  70.1806410  41.5612720  84.0490350  70.6551910  41.8409480
  84.5381490  69.2761240  41.4525900  89.3839630  70.8829510  39.6061810
  89.8247720  70.8274610  38.7583410  89.1147220  71.7987520  39.6771990
  75.5530950  86.6537110  36.5794580  75.3852990  86.0207790  37.2776470
  74.6865460  86.8596510  36.2288770  76.1758970  70.4853890  34.0826440
  76.9338330  70.5982770  33.5090470  75.7136140  71.3223090  34.0369870
  82.7172780  72.5993160  37.0728750  81.9047290  72.2250050  36.7324630
  83.2214420  71.8438240  37.3749940  87.2197760  69.2635610  38.3111820
  87.8227130  69.8355820  38.7860340  86.4790750  69.8275050  38.0885720
  77.1593650  85.3470340  34.0244720  76.6341270  85.7278370  33.3206680
  77.0838230  85.9721110  34.7454430  78.5484120  71.0117940  32.6228410
  79.0776880  70.2247740  32.4936360  79.1812440  71.6909130  32.8563940
  80.7421960  70.7493080  35.6773800  80.1124700  70.0480390  35.8443930
  80.2027100  71.5097210  35.4606960  83.6813910  87.3632310  48.3484410
  84.6081220  87.1276580  48.3920370  83.6664340  88.1904310  47.8670440
  80.8677520  70.0277060  48.1126290  80.5861790  70.5310660  47.3487110
  81.2497220  69.2298810  47.7468420  79.7586620  87.2952720  32.8993970
  80.4905440  87.0112000  32.3517860  80.0180290  87.0566000  33.7893350
  78.9201410  83.4117450  32.9040300  78.2910290  83.8802550  33.4526130
  79.0349240  82.5666670  33.3386490  87.4692980  69.4430640  48.6906760
  87.3558430  69.7625250  49.5858280  88.2862720  69.8443150  48.3944040
  86.3751130  77.4623110  19.0541500  86.2945180  76.5477720  18.7833210
  85.9615550  77.9590180  18.3481210  84.5069170  79.2402130  20.9350770
  83.7311270  78.7602570  21.2249340  85.1582100  78.5607780  20.7606930
  78.5235000  79.5521940  21.8126530  77.6919880  79.2970650  22.2123040
  79.1315980  79.6232710  22.5484450  88.5276600  83.6462320  19.7149900
  88.0658130  82.8749560  20.0437070  89.3402150  83.6728390  20.2202350
  78.5036260  83.5862030  22.0084550  78.8064300  82.6959770  21.8294770
  79.2479850  84.1432250  21.7806800  76.9326950  74.5123830  15.5968920
  76.0443650  74.8539800  15.4948800  77.2168140  74.3124150  14.7049750
  74.8959960  77.1129480  21.4808620  75.4676070  76.3451680  21.4812260
  74.8961500  77.4118240  20.5715230  84.7539910  85.9320330  19.3353890
  84.1351350  86.3877830  18.7648330  85.6091690  86.0871790  18.9343590
  83.9478160  81.9159320  20.9420930  83.8786440  80.9749260  20.7810060
  84.7098020  82.0060730  21.5143500  76.1384830  72.5213840  23.2677550
  75.9587670  71.6239590  23.5480310  75.7364910  73.0685710  23.9424500
  84.9783330  74.7229700  21.1689860  85.3548150  73.8501580  21.0563530
  84.8802840  75.0588400  20.2780300  79.1088340  73.0955330  16.6307300
  79.2155090  73.9959060  16.9376060  78.1980700  73.0473300  16.3401950
  88.7607450  72.2180140  18.1018200  89.5817070  71.7276710  18.1443680
  88.7941530  72.8077800  18.8550040  76.7571500  75.0174340  21.8759890
  77.4381610  75.2812710  22.4947290  76.4419550  74.1775210  22.2097900
  80.9496070  76.0641700  20.9632480  81.4574290  76.5622670  21.6037500
  81.4809310  75.2876900  20.7871840  79.2332170  70.7040260  25.2295900
  79.2350610  71.2212650  24.4241800  78.4036480  70.2270440  25.2065830
  85.6203260  80.8159570  16.7285800  85.0020530  81.2809020  16.1648520
  86.1326510  81.5087050  17.1455310  80.4835020  80.3435440  23.4069400
  80.1504400  80.9704360  24.0490470  80.6601700  80.8697320  22.6271070
  88.9968930  74.1580520  20.8745740  88.2924500  74.4465410  21.4548850
  89.3581090  74.9680630  20.5145300  78.9147500  72.4150220  23.2366350
  79.2564310  73.2592270  22.9420220  77.9763310  72.5633960  23.3531690
  79.6954120  82.3116240  25.2218580  80.3128120  82.9867320  24.9403030
  78.8347240  82.7204220  25.1306080  74.9886460  81.5016100  14.1025430
  74.6114440  81.9903200  13.3710330  75.2459530  82.1741380  14.7331960
  82.5975390  69.9032490  19.5610940  82.9050370  69.3479380  18.8446440
  81.6676090  70.0376950  19.3783930  88.1490450  85.6199780  21.8518400
  88.1617610  85.2162070  20.9840660  87.5965670  86.3947070  21.7479830
  89.4435870  82.3416000  16.9408570  89.3332200  81.3990330  17.0657990
  89.4404120  82.7031640  17.8271330  87.5475890  80.5229620  23.1801010
  87.9644680  80.3089730  22.3454470  88.2715710  80.7802410  23.7509630
  84.9856150  77.9681320  16.2971060  84.0585430  77.9018700  16.5259530
  85.1380970  78.9061450  16.1826300  84.9725230  74.2398320  13.2938220
  84.0328900  74.4012280  13.3790680  85.2908490  74.9584000  12.7474210
  89.0153440  79.5301620  16.8006310  88.3965860  79.1921170  16.1532610
  88.9977890  78.8861380  17.5085500  88.4580000  75.7086160  24.2172120
  88.0451180  76.5339870  24.4712110  87.7255950  75.1231200  24.0248480
  80.5912790  78.4946060  19.0790790  80.1869790  77.7823310  18.5836690
  80.6775910  78.1499300  19.9678830  81.0594490  82.1813620  21.2430000
  80.7622780  81.5759090  20.5637780  82.0094310  82.2190930  21.1319360
  79.3041410  75.2689270  22.8589830  79.8556000  75.3784610  22.0843080
  79.8184920  75.6426870  23.5745060  89.1480100  85.7545490  24.9053100
  88.6710660  86.5617680  24.7125710  88.4641890  85.1023820  25.0579310
  80.1512920  81.9195310  27.8937800  79.2541450  82.1435280  28.1411200
  80.1765790  82.0430250  26.9449200  87.1918140  78.7688430  13.8079060
  87.6311420  77.9310860  13.6616880  87.9046560  79.4017830  13.8943200
  78.9784140  78.7908630  26.4695170  78.8391910  79.6631430  26.8382570
  78.0965500  78.4481440  26.3243110  85.3013520  83.7084500  17.7760300
  85.7409430  84.4508830  17.3615690  85.2400410  83.9511070  18.6999260
  80.7764490  84.7330330  28.6780320  80.7479920  85.1373280  27.8108750
  80.6129460  83.8040690  28.5151920  77.2917420  77.3891040  16.5797440
  77.1715020  78.1153130  15.9678710  76.9818310  76.6193950  16.1025350
  74.9302790  80.5606180  22.3866080  75.0083210  80.6954950  21.4421800
  75.5444470  79.8522070  22.5794200  76.1750420  82.2606370  18.7972260
  75.7678500  82.4020960  17.9425860  77.0663430  81.9766530  18.5943470
  85.9929300  86.4098280  25.7039310  86.5073970  86.3206290  26.5061740
  85.1498380  86.7557980  25.9967220  87.9683700  86.6953620  15.1323310
  87.8084840  86.4056560  16.0305140  87.8030410  85.9193750  14.5968540
  80.4472080  86.4752150  16.9094930  80.2714560  85.5587690  16.6962730
  79.5927820  86.8339440  17.1492730  87.6709830  84.2041180  13.6921310
  86.9774990  84.2018470  13.0323590  88.4132690  83.7800500  13.2615480
  87.2359760  85.8303890  17.7669800  87.6916710  85.0493270  18.0808420
  87.5752280  86.5410710  18.3110980  74.9862310  81.6020350  24.9260540
  75.1493350  81.1325710  24.1079910  75.4514760  81.0943910  25.5909380
  79.7581080  70.7326110  19.9621110  79.3149230  71.5135650  19.6305630
  80.3166070  71.0556000  20.6692050  84.0450890  73.5994630  25.5656430
  83.5830260  73.8077650  26.3776370  83.6429000  72.7853980  25.2627100
  89.0455400  74.8203580  26.6953090  88.1948990  74.5209330  27.0162160
  88.8857190  75.0645590  25.7836910  86.1405110  76.3205330  28.7951880
  86.4658520  75.4869080  28.4554110  86.9285440  76.8433850  28.9430210
  82.8739900  70.3536810  14.8426940  82.2494080  70.3496680  15.5680250
  82.7870020  69.4867770  14.4462910  81.7956980  71.2773440  21.8210710
  82.0929310  72.1836270  21.7402730  82.3442540  70.7892220  21.2070280
  79.5495300  75.8559680  17.6902360  79.3236220  75.6396850  18.5948980
  78.7687830  76.2888140  17.3448330  86.7793060  75.8623050  16.2893010
  86.1801950  76.5858850  16.1056630  87.3272670  75.7999830  15.5069460
  81.9894510  76.7545260  28.3562630  81.8938110  75.8139990  28.2063030
  82.8326490  76.9760330  27.9610700  85.3857930  74.4986590  18.3196290
  85.7787500  74.8158790  17.5064980  85.7474780  73.6198470  18.4340810
  77.1205050  73.1658930  26.5096410  76.7268440  74.0134140  26.7169190
  76.4323450  72.5285300  26.7005050  83.6950100  73.2493900  29.5793150
  83.0048420  73.0566100  30.2139240  84.4382400  73.5328540  30.1117450
  74.4222100  71.0887390  20.5426490  74.1335150  71.6590250  21.2551470
  75.1667860  70.6091840  20.9057720  74.6092330  75.0307510  11.7529210
  74.5267000  75.9738270  11.8944200  74.2575390  74.8882420  10.8741560
  85.9713070  77.0892340  22.4147070  85.2394190  77.5979150  22.7637170
  85.5737410  76.2722320  22.1135850  82.4090460  73.7646540  20.8199560
  82.4126520  73.3236490  19.9704100  83.3041580  74.0863870  20.9271380
  78.2592840  73.6473030  19.7793770  77.9192890  74.1248260  20.5360820
  77.4970160  73.1938150  19.4194870  82.4710610  74.7658620  13.8106320
  82.5923430  74.7245100  14.7592140  82.0859120  75.6282770  13.6553050
  86.4338980  72.5426020  21.8270010  86.4511720  72.9934670  22.6711860
  86.1854560  71.6431660  22.0403450  81.4832110  77.0759760  13.2089620
  80.9149010  76.6278010  12.5825530  82.1921110  77.4352540  12.6754770
  89.8609730  69.9558200  27.6656390  90.1855500  69.2247860  28.1914370
  89.8966240  69.6371840  26.7637380  76.5601290  80.9771780  27.0856350
  76.1756080  80.3365450  27.6839310  76.8713480  81.6807900  27.6551080
  82.7098430  77.8248320  22.5664970  83.0768560  77.3506890  23.3126310
  82.5203490  78.6989890  22.9073310  75.5738920  72.5692010  18.6958440
  75.2885840  72.2047680  19.5337060  75.5117780  71.8372470  18.0821580
  80.4997800  76.8656960  24.8849180  80.1954870  77.7448940  25.1099540
  81.4544260  76.9256750  24.9206620  79.0279590  81.0717950  15.4816030
  78.2541850  80.5315570  15.3214750  79.7574220  80.5524560  15.1433790
  85.2477510  71.4621270  15.4171810  84.4342120  70.9634440  15.3417120
  85.0539460  72.3019520  15.0008160  85.1686370  80.1392370  27.1611420
  85.1023680  79.2188040  26.9069010  84.5391510  80.2367810  27.8756060
  87.9625900  75.8340920  13.7133970  88.8505520  76.1458150  13.5385310
  87.9330990  74.9613170  13.3214550  79.0716990  80.7398330  19.1194840
  79.5895660  79.9366590  19.0651730  78.6201010  80.6777470  19.9611670
  83.9586490  82.0064610  14.3922140  84.3002190  82.7506840  13.8965460
  83.1299200  82.3195730  14.7546970  76.5561530  77.7059700  26.0320540
  76.1976470  78.3713550  26.6193880  76.2616090  76.8743250  26.4033160
  79.7574650  78.1643940  28.9160090  79.4574790  78.3101120  28.0187910
  80.5285890  77.6049230  28.8233480  85.1003100  82.9612940  26.9115220
  85.1147640  82.0293900  26.6934130  84.3928200  83.0472700  27.5504990
  86.8413900  81.3280450  19.7567650  87.1937720  80.7308580  19.0969020
  85.9576230  81.0024680  19.9275900  82.9277180  82.0878140  17.1638060
  83.6148310  82.6347350  17.5445650  82.1409600  82.6318870  17.1987670
  75.0669580  77.7050960  12.6555140  75.9364430  77.9875760  12.9391060
  74.5759900  78.5186830  12.5403950  82.2304390  79.0924170  16.7763420
  82.6867170  79.9029420  17.0023610  81.8792600  78.7747310  17.6081910
  84.5337000  84.6030510  24.0055720  85.1779220  84.8089890  24.6829140
  84.8966440  83.8418910  23.5526570  78.1316170  69.4361820  17.2485940
  78.0030800  69.4279720  18.1970860  77.3078190  69.7744910  16.8976950
  85.8069080  82.6062860  22.7233170  86.4491310  81.9056020  22.8365340
  86.3318430  83.3861300  22.5430060  89.6524800  82.8911480  12.4472310
  89.4262380  82.1741920  13.0396950  89.2621000  82.6423920  11.6094060
  87.5806700  83.4057760  25.9269230  87.9162940  83.9924450  26.6047150
  86.6607040  83.2750470  26.1567020  75.4340830  86.9178340  13.2216770
  75.7938470  87.5167680  12.5674040  75.2933170  87.4638230  13.9951800
  75.1310100  71.1952940  26.7092640  74.4168620  71.3949860  27.3145250
  75.5505140  70.4192510  27.0807440  89.2341050  80.8083420  14.1086470
  88.9462750  81.2696110  14.8964350  90.0293220  80.3481190  14.3770690
  75.4182690  85.1833200  27.6959170  75.5273810  84.2427940  27.5554560
  74.7663250  85.4487950  27.0472900  83.4095280  83.4549090  29.0957290
  83.0892150  82.7358330  29.6402980  82.7353640  84.1304160  29.1693350
  81.4509450  84.3009540  14.0390440  81.4419550  85.0339230  13.4234950
  80.5307810  84.0541120  14.1317400  77.0516090  79.5224430  14.7837200
  76.4444040  80.2623330  14.7932500  77.5265440  79.6123790  13.9575400
  86.6248880  73.6875250  24.4594090  86.9929700  72.8670460  24.7873660
  85.7647080  73.7477140  24.8749740  89.9910910  72.6432190  15.2681650
  89.3624070  72.7477860  14.5539880  89.4962830  72.8628970  16.0575530
  84.4369050  84.3637780  12.7015630  84.5381030  84.1601770  11.7717610
  83.5370790  84.1096060  12.9063410  81.9594940  74.9218140  16.6839530
  81.2511090  75.3904480  17.1253140  82.2439420  74.2640150  17.3184720
  83.5850870  76.3414840  24.6832060  84.0836120  76.8160660  25.3483910
  83.7273820  75.4178360  24.8902090  85.9910370  71.6468800  18.1235320
  85.8678150  71.6654930  17.1744830  86.9394930  71.6947740  18.2433720
  83.0787160  86.8824100  17.3963300  83.3328660  86.8445490  16.4742670
  82.1299640  86.7557430  17.3891550  80.1629960  73.2303220  14.0590240
  81.0120490  73.6673370  13.9930430  79.7961230  73.5423480  14.8862300
  89.0839740  77.8015980  18.9721810  88.1429880  77.8166210  19.1469500
  89.3983810  77.0151940  19.4182110  79.0621380  79.4835580  12.5325770
  79.8284650  79.3716940  13.0951200  79.1396070  78.7873550  11.8802540
  77.7568140  76.9160650  13.2158660  77.8371730  75.9688160  13.3276060
  78.6487890  77.2467530  13.3219320  78.5582850  87.0656040  20.3193200
  79.2945330  86.5171500  20.5901770  78.9423770  87.9312050  20.1799190
  75.4428330  83.1329610  16.1934710  74.5168110  83.3750750  16.1840120
  75.9084760  83.9603870  16.0719460  77.5641130  86.2502110  29.5078780
  78.3653860  86.5714160  29.9214180  77.0492950  85.8897690  30.2298690
  81.6685160  86.2386350  12.1418770  82.4613770  86.5275180  11.6900560
  81.1489510  85.8078520  11.4631250  86.4005760  82.3581980  29.4554190
  85.7943920  82.3813580  28.7149940  86.0959870  81.6265020  29.9921440
  87.8306130  86.0862270  28.0663600  88.7827880  86.0020290  28.0163840
  87.6834350  86.7503980  28.7397390  75.2838940  78.7375570  28.4514830
  75.7877960  78.1582850  29.0231060  74.5446360  79.0215800  28.9891200
  82.1862560  81.4589760  12.0061120  82.0813200  80.8442110  12.7322500
  82.0186780  80.9355650  11.2224130  82.3376880  80.1446560  27.9850350
  81.5722550  80.7131560  27.9005020  82.5192840  79.8522770  27.0918580
  85.4265290  80.5209790  12.6103110  84.8775390  80.9679090  13.2545850
  86.0484550  80.0159040  13.1340780  89.4800230  81.8751890  28.5425370
  90.2209700  82.2127650  28.0392830  88.7172910  82.0443950  27.9895140
  77.3162020  76.8805160  29.3464900  77.3567360  76.5819030  30.2550130
  78.1707520  77.2812770  29.1872420  81.0940410  79.4800710  14.5068410
  81.5156830  79.3140580  15.3499800  81.2191250  78.6700940  14.0123550
  79.2567830  75.4597260  27.3139390  78.7264290  74.9688210  26.6862730
  79.9255900  75.8881460  26.7797320  83.6068050  78.5038320  11.7545510
  84.1273710  77.7887340  11.3886660  84.2536450  79.1424190  12.0546020
  88.1545890  79.9266720  27.0780580  88.5686910  80.0811800  27.9271000
  87.2196890  80.0521940  27.2406360  88.6268060  77.2662880  29.0819730
  89.2088830  76.5115200  28.9940210  88.8029830  77.7970320  28.3051210
  79.7440130  72.4259630  27.3936680  79.6497000  71.8080380  26.6687550
  79.1637520  73.1525920  27.1666590  82.5101570  70.9832870  24.4264070
  82.0618870  71.0057130  23.5809620  81.8766770  70.5851890  25.0234370
  82.9161120  79.8787200  25.0476510  83.3349230  80.7219930  24.8752750
  81.9969750  80.0159240  24.8183290  85.2525020  77.6103380  26.4314350
  85.3721230  77.0144520  27.1709190  86.1119020  77.6473070  26.0115650
  87.5912920  78.1640570  25.0076860  87.0648140  78.6883190  24.4042000
  87.9344260  78.7967960  25.6386590  79.9899310  75.5533940  11.4526570
  79.7888370  74.6901300  11.8139910  79.8191360  75.4667300  10.5148170
  80.7668540  86.1840210  26.1634240  80.2289630  86.9086270  25.8442940
  81.0202500  85.7070550  25.3731580  82.0193790  74.1524730  27.6890170
  82.6093480  73.8440580  28.3767990  81.2014030  73.6804480  27.8450070
  86.8387220  73.7690540  27.9223190  86.1502740  73.1072080  27.8573180
  87.5593240  73.3228810  28.3671650  87.4687620  70.3642170  13.9813450
  87.7489910  69.5210070  14.3372870  86.6953350  70.5965280  14.4952200
  78.7882110  72.6534560  11.4404450  79.0908010  72.6601990  10.5323600
  79.5276700  72.3032420  11.9372110  83.6230750  87.4191420  26.4220890
  83.5489450  88.3226560  26.7293260  82.7209590  87.1003320  26.3942960
  82.0067040  71.5969180  12.4260650  81.6589040  70.9193170  11.8463100
  82.2079810  71.1358690  13.2404040  84.1716080  86.5849930  14.0447250
  85.0666870  86.9234900  14.0666010  84.2033710  85.8629340  13.4171530
  77.8112240  81.9576980  12.2734250  78.2487110  82.5006650  12.9291830
  78.2959970  81.1323930  12.2830590  75.0258040  84.7466010  19.7254510
  75.3561050  83.8787070  19.4933150  75.4549040  84.9524530  20.5559470
  79.6219960  83.0775020  17.3856480  79.3215500  82.9539990  18.2860390
  79.5157450  82.2183610  16.9772210  75.5148250  85.6136600  22.4636140
  75.0779240  85.7937400  23.2960290  76.0825930  86.3711220  22.3217860
  75.3472680  78.1256830  18.8225020  74.6921520  77.8568470  18.1784720
  76.1850630  78.0161310  18.3727000  89.8362070  81.8405580  24.8489610
  89.0221910  82.2702740  25.1115400  90.2436270  82.4523990  24.2358660
  88.2963120  72.9198120  13.0443510  88.7148000  72.7329100  12.2040170
  87.9899180  72.0677170  13.3546440  76.3848610  78.5109400  23.3628360
  76.7521650  78.4236800  24.2424380  75.8159430  77.7475950  23.2635220
  75.9364610  75.4218490  27.2686780  75.0420660  75.3885250  27.6080490
  76.4762160  75.6205280  28.0338030  74.5610760  75.3355760  14.7650350
  73.6574840  75.5985960  14.5902010  75.0451380  75.6066930  13.9850310
  77.1037970  74.3921300  12.6744730  77.8129670  73.9704520  12.1892010
  76.3877910  74.4596530  12.0428080  76.7512130  70.4460630  11.7147380
  77.4740260  70.9869570  12.0328600  77.0236650  70.1724050  10.8388920
  76.4404320  69.6966820  21.6170000  77.0880510  69.1464200  21.1765160
  76.8606160  69.9509970  22.4385810  76.1936320  69.8522490  24.3595320
  75.8451140  70.3086310  25.1253500  75.8624020  68.9579620  24.4417750
  77.8000690  83.0242090  28.5248510  77.7570320  82.6535000  29.4062970
  77.9311700  83.9619660  28.6650330  81.5006720  84.5801680  24.1258230
  81.2598080  84.8476240  23.2388750  82.4409360  84.7507410  24.1809090
  83.7061140  71.0434370  27.8814740  83.6450030  71.6356200  28.6310150
  84.6461520  70.9360330  27.7365000  86.3435700  70.7004430  27.5207030
  86.9576110  71.0183720  26.8588110  86.8885260  70.2153020  28.1402890
  76.8656960  69.3798690  27.6346090  77.4139950  69.1986740  26.8712200
  76.9312270  68.5892800  28.1702400  77.6388720  85.9704340  25.6446290
  77.0449040  85.8389040  26.3836330  77.6312560  85.1342480  25.1788390
  87.0843740  69.2636570  23.8476320  86.2103580  69.5971680  23.6449250
  86.9754490  68.7909750  24.6728190  87.9915720  71.4707440  25.2318040
  87.6629080  70.6559200  24.8519770  88.9398020  71.4277250  25.1083730
  77.2700950  83.3362720  24.5954330  76.5435010  82.7168010  24.5280280
  77.3310100  83.7303330  23.7252410  80.8746050  85.5507720  21.3803740
  81.3911070  84.9395080  20.8552000  81.5243430  86.0536500  21.8714750
  83.6141550  86.4416210  22.2072720  83.9019360  86.1870510  21.3305730
  84.1264770  85.8893570  22.7978290  84.8318560  70.1806410  22.7869230
  84.0490350  70.6551910  23.0665990  84.5381490  69.2761240  22.6782410
  89.3839630  70.8829510  20.8318320  89.8247720  70.8274610  19.9839920
  89.1147220  71.7987520  20.9028500  75.5530950  86.6537110  17.8051090
  75.3852990  86.0207790  18.5032980  74.6865460  86.8596510  17.4545280
  76.1758970  70.4853890  15.3082950  76.9338330  70.5982770  14.7346980
  75.7136140  71.3223090  15.2626380  82.7172780  72.5993160  18.2985260
  81.9047290  72.2250050  17.9581140  83.2214420  71.8438240  18.6006450
  87.2197760  69.2635610  19.5368330  87.8227130  69.8355820  20.0116850
  86.4790750  69.8275050  19.3142230  77.1593650  85.3470340  15.2501230
  76.6341270  85.7278370  14.5463190  77.0838230  85.9721110  15.9710940
  78.5484120  71.0117940  13.8484920  79.0776880  70.2247740  13.7192870
  79.1812440  71.6909130  14.0820450  80.7421960  70.7493080  16.9030310
  80.1124700  70.0480390  17.0700440  80.2027100  71.5097210  16.6863470
  83.6813910  87.3632310  29.5740920  84.6081220  87.1276580  29.6176880
  83.6664340  88.1904310  29.0926950  80.8677520  70.0277060  29.3382800
  80.5861790  70.5310660  28.5743620  81.2497220  69.2298810  28.9724930
  79.7586620  87.2952720  14.1250480  80.4905440  87.0112000  13.5774370
  80.0180290  87.0566000  15.0149860  78.9201410  83.4117450  14.1296810
  78.2910290  83.8802550  14.6782640  79.0349240  82.5666670  14.5643000
  87.4692980  69.4430640  29.9163270  87.3558430  69.7625250  30.8114790
  88.2862720  69.8443150  29.6200550  84.5069170  79.2402130   2.1607280
  83.7311270  78.7602570   2.4505850  85.1582100  78.5607780   1.9863440
  78.5235000  79.5521940   3.0383040  77.6919880  79.2970650   3.4379550
  79.1315980  79.6232710   3.7740960  78.5036260  83.5862030   3.2341060
  78.8064300  82.6959770   3.0551280  79.2479850  84.1432250   3.0063310
  74.8959960  77.1129480   2.7065130  75.4676070  76.3451680   2.7068770
  74.8961500  77.4118240   1.7971740  83.9478160  81.9159320   2.1677440
  83.8786440  80.9749260   2.0066570  84.7098020  82.0060730   2.7400010
  76.1384830  72.5213840   4.4934060  75.9587670  71.6239590   4.7736820
  75.7364910  73.0685710   5.1681010  84.9783330  74.7229700   2.3946370
  85.3548150  73.8501580   2.2820040  84.8802840  75.0588400   1.5036810
  76.7571500  75.0174340   3.1016400  77.4381610  75.2812710   3.7203800
  76.4419550  74.1775210   3.4354410  80.9496070  76.0641700   2.1888990
  81.4574290  76.5622670   2.8294010  81.4809310  75.2876900   2.0128350
  79.2332170  70.7040260   6.4552410  79.2350610  71.2212650   5.6498310
  78.4036480  70.2270440   6.4322340  80.4835020  80.3435440   4.6325910
  80.1504400  80.9704360   5.2746980  80.6601700  80.8697320   3.8527580
  88.9968930  74.1580520   2.1002250  88.2924500  74.4465410   2.6805360
  89.3581090  74.9680630   1.7401810  78.9147500  72.4150220   4.4622860
  79.2564310  73.2592270   4.1676730  77.9763310  72.5633960   4.5788200
  79.6954120  82.3116240   6.4475090  80.3128120  82.9867320   6.1659540
  78.8347240  82.7204220   6.3562590  88.1490450  85.6199780   3.0774910
  88.1617610  85.2162070   2.2097170  87.5965670  86.3947070   2.9736340
  87.5475890  80.5229620   4.4057520  87.9644680  80.3089730   3.5710980
  88.2715710  80.7802410   4.9766140  88.4580000  75.7086160   5.4428630
  88.0451180  76.5339870   5.6968620  87.7255950  75.1231200   5.2504990
  81.0594490  82.1813620   2.4686510  80.7622780  81.5759090   1.7894290
  82.0094310  82.2190930   2.3575870  79.3041410  75.2689270   4.0846340
  79.8556000  75.3784610   3.3099590  79.8184920  75.6426870   4.8001570
  89.1480100  85.7545490   6.1309610  88.6710660  86.5617680   5.9382220
  88.4641890  85.1023820   6.2835820  80.1512920  81.9195310   9.1194310
  79.2541450  82.1435280   9.3667710  80.1765790  82.0430250   8.1705710
  78.9784140  78.7908630   7.6951680  78.8391910  79.6631430   8.0639080
  78.0965500  78.4481440   7.5499620  80.7764490  84.7330330   9.9036830
  80.7479920  85.1373280   9.0365260  80.6129460  83.8040690   9.7408430
  74.9302790  80.5606180   3.6122590  75.0083210  80.6954950   2.6678310
  75.5444470  79.8522070   3.8050710  85.9929300  86.4098280   6.9295820
  86.5073970  86.3206290   7.7318250  85.1498380  86.7557980   7.2223730
  74.9862310  81.6020350   6.1517050  75.1493350  81.1325710   5.3336420
  75.4514760  81.0943910   6.8165890  84.0450890  73.5994630   6.7912940
  83.5830260  73.8077650   7.6032880  83.6429000  72.7853980   6.4883610
  89.0455400  74.8203580   7.9209600  88.1948990  74.5209330   8.2418670
  88.8857190  75.0645590   7.0093420  86.1405110  76.3205330  10.0208390
  86.4658520  75.4869080   9.6810620  86.9285440  76.8433850  10.1686720
  81.7956980  71.2773440   3.0467220  82.0929310  72.1836270   2.9659240
  82.3442540  70.7892220   2.4326790  81.9894510  76.7545260   9.5819140
  81.8938110  75.8139990   9.4319540  82.8326490  76.9760330   9.1867210
  77.1205050  73.1658930   7.7352920  76.7268440  74.0134140   7.9425700
  76.4323450  72.5285300   7.9261560  83.6950100  73.2493900  10.8049660
  83.0048420  73.0566100  11.4395750  84.4382400  73.5328540  11.3373960
  74.4222100  71.0887390   1.7683000  74.1335150  71.6590250   2.4807980
  75.1667860  70.6091840   2.1314230  85.9713070  77.0892340   3.6403580
  85.2394190  77.5979150   3.9893680  85.5737410  76.2722320   3.3392360
  86.4338980  72.5426020   3.0526520  86.4511720  72.9934670   3.8968370
  86.1854560  71.6431660   3.2659960  89.8609730  69.9558200   8.8912900
  90.1855500  69.2247860   9.4170880  89.8966240  69.6371840   7.9893890
  76.5601290  80.9771780   8.3112860  76.1756080  80.3365450   8.9095820
  76.8713480  81.6807900   8.8807590  82.7098430  77.8248320   3.7921480
  83.0768560  77.3506890   4.5382820  82.5203490  78.6989890   4.1329820
  80.4997800  76.8656960   6.1105690  80.1954870  77.7448940   6.3356050
  81.4544260  76.9256750   6.1463130  85.1686370  80.1392370   8.3867930
  85.1023680  79.2188040   8.1325520  84.5391510  80.2367810   9.1012570
  76.5561530  77.7059700   7.2577050  76.1976470  78.3713550   7.8450390
  76.2616090  76.8743250   7.6289670  79.7574650  78.1643940  10.1416600
  79.4574790  78.3101120   9.2444420  80.5285890  77.6049230  10.0489990
  85.1003100  82.9612940   8.1371730  85.1147640  82.0293900   7.9190640
  84.3928200  83.0472700   8.7761500  84.5337000  84.6030510   5.2312230
  85.1779220  84.8089890   5.9085650  84.8966440  83.8418910   4.7783080
  85.8069080  82.6062860   3.9489680  86.4491310  81.9056020   4.0621850
  86.3318430  83.3861300   3.7686570  87.5806700  83.4057760   7.1525740
  87.9162940  83.9924450   7.8303660  86.6607040  83.2750470   7.3823530
  75.1310100  71.1952940   7.9349150  74.4168620  71.3949860   8.5401760
  75.5505140  70.4192510   8.3063950  75.4182690  85.1833200   8.9215680
  75.5273810  84.2427940   8.7811070  74.7663250  85.4487950   8.2729410
  83.4095280  83.4549090  10.3213800  83.0892150  82.7358330  10.8659490
  82.7353640  84.1304160  10.3949860  86.6248880  73.6875250   5.6850600
  86.9929700  72.8670460   6.0130170  85.7647080  73.7477140   6.1006250
  83.5850870  76.3414840   5.9088570  84.0836120  76.8160660   6.5740420
  83.7273820  75.4178360   6.1158600  77.5641130  86.2502110  10.7335290
  78.3653860  86.5714160  11.1470690  77.0492950  85.8897690  11.4555200
  86.4005760  82.3581980  10.6810700  85.7943920  82.3813580   9.9406450
  86.0959870  81.6265020  11.2177950  87.8306130  86.0862270   9.2920110
  88.7827880  86.0020290   9.2420350  87.6834350  86.7503980   9.9653900
  75.2838940  78.7375570   9.6771340  75.7877960  78.1582850  10.2487570
  74.5446360  79.0215800  10.2147710  82.3376880  80.1446560   9.2106860
  81.5722550  80.7131560   9.1261530  82.5192840  79.8522770   8.3175090
  89.4800230  81.8751890   9.7681880  90.2209700  82.2127650   9.2649340
  88.7172910  82.0443950   9.2151650  77.3162020  76.8805160  10.5721410
  77.3567360  76.5819030  11.4806640  78.1707520  77.2812770  10.4128930
  79.2567830  75.4597260   8.5395900  78.7264290  74.9688210   7.9119240
  79.9255900  75.8881460   8.0053830  88.1545890  79.9266720   8.3037090
  88.5686910  80.0811800   9.1527510  87.2196890  80.0521940   8.4662870
  88.6268060  77.2662880  10.3076240  89.2088830  76.5115200  10.2196720
  88.8029830  77.7970320   9.5307720  79.7440130  72.4259630   8.6193190
  79.6497000  71.8080380   7.8944060  79.1637520  73.1525920   8.3923100
  82.5101570  70.9832870   5.6520580  82.0618870  71.0057130   4.8066130
  81.8766770  70.5851890   6.2490880  82.9161120  79.8787200   6.2733020
  83.3349230  80.7219930   6.1009260  81.9969750  80.0159240   6.0439800
  85.2525020  77.6103380   7.6570860  85.3721230  77.0144520   8.3965700
  86.1119020  77.6473070   7.2372160  87.5912920  78.1640570   6.2333370
  87.0648140  78.6883190   5.6298510  87.9344260  78.7967960   6.8643100
  80.7668540  86.1840210   7.3890750  80.2289630  86.9086270   7.0699450
  81.0202500  85.7070550   6.5988090  82.0193790  74.1524730   8.9146680
  82.6093480  73.8440580   9.6024500  81.2014030  73.6804480   9.0706580
  86.8387220  73.7690540   9.1479700  86.1502740  73.1072080   9.0829690
  87.5593240  73.3228810   9.5928160  83.6230750  87.4191420   7.6477400
  83.5489450  88.3226560   7.9549770  82.7209590  87.1003320   7.6199470
  75.5148250  85.6136600   3.6892650  75.0779240  85.7937400   4.5216800
  76.0825930  86.3711220   3.5474370  89.8362070  81.8405580   6.0746120
  89.0221910  82.2702740   6.3371910  90.2436270  82.4523990   5.4615170
  76.3848610  78.5109400   4.5884870  76.7521650  78.4236800   5.4680890
  75.8159430  77.7475950   4.4891730  75.9364610  75.4218490   8.4943290
  75.0420660  75.3885250   8.8337000  76.4762160  75.6205280   9.2594540
  76.4404320  69.6966820   2.8426510  77.0880510  69.1464200   2.4021670
  76.8606160  69.9509970   3.6642320  76.1936320  69.8522490   5.5851830
  75.8451140  70.3086310   6.3510010  75.8624020  68.9579620   5.6674260
  77.8000690  83.0242090   9.7505020  77.7570320  82.6535000  10.6319480
  77.9311700  83.9619660   9.8906840  81.5006720  84.5801680   5.3514740
  81.2598080  84.8476240   4.4645260  82.4409360  84.7507410   5.4065600
  83.7061140  71.0434370   9.1071250  83.6450030  71.6356200   9.8566660
  84.6461520  70.9360330   8.9621510  86.3435700  70.7004430   8.7463540
  86.9576110  71.0183720   8.0844620  86.8885260  70.2153020   9.3659400
  76.8656960  69.3798690   8.8602600  77.4139950  69.1986740   8.0968710
  76.9312270  68.5892800   9.3958910  77.6388720  85.9704340   6.8702800
  77.0449040  85.8389040   7.6092840  77.6312560  85.1342480   6.4044900
  87.0843740  69.2636570   5.0732830  86.2103580  69.5971680   4.8705760
  86.9754490  68.7909750   5.8984700  87.9915720  71.4707440   6.4574550
  87.6629080  70.6559200   6.0776280  88.9398020  71.4277250   6.3340240
  77.2700950  83.3362720   5.8210840  76.5435010  82.7168010   5.7536790
  77.3310100  83.7303330   4.9508920  80.8746050  85.5507720   2.6060250
  81.3911070  84.9395080   2.0808510  81.5243430  86.0536500   3.0971260
  83.6141550  86.4416210   3.4329230  83.9019360  86.1870510   2.5562240
  84.1264770  85.8893570   4.0234800  84.8318560  70.1806410   4.0125740
  84.0490350  70.6551910   4.2922500  84.5381490  69.2761240   3.9038920
  83.6813910  87.3632310  10.7997430  84.6081220  87.1276580  10.8433390
  83.6664340  88.1904310  10.3183460  80.8677520  70.0277060  10.5639310
  80.5861790  70.5310660   9.8000130  81.2497220  69.2298810  10.1981440
  87.4692980  69.4430640  11.1419780  87.3558430  69.7625250  12.0371300
  88.2862720  69.8443150  10.8457060  86.3751130  58.6879620  56.6028480
  86.2945180  57.7734230  56.3320190  85.9615550  59.1846690  55.8968190
  88.5276600  64.8718830  57.2636880  88.0658130  64.1006070  57.5924050
  89.3402150  64.8984900  57.7689330  76.9326950  55.7380340  53.1455900
  76.0443650  56.0796310  53.0435780  77.2168140  55.5380660  52.2536730
  84.7539910  67.1576840  56.8840870  84.1351350  67.6134340  56.3135310
  85.6091690  67.3128300  56.4830570  79.1088340  54.3211840  54.1794280
  79.2155090  55.2215570  54.4863040  78.1980700  54.2729810  53.8888930
  88.7607450  53.4436650  55.6505180  89.5817070  52.9533220  55.6930660
  88.7941530  54.0334310  56.4037020  85.6203260  62.0416080  54.2772780
  85.0020530  62.5065530  53.7135500  86.1326510  62.7343560  54.6942290
  74.9886460  62.7272610  51.6512410  74.6114440  63.2159710  50.9197310
  75.2459530  63.3997890  52.2818940  82.5975390  51.1289000  57.1097920
  82.9050370  50.5735890  56.3933420  81.6676090  51.2633460  56.9270910
  89.4435870  63.5672510  54.4895550  89.3332200  62.6246840  54.6144970
  89.4404120  63.9288150  55.3758310  84.9856150  59.1937830  53.8458040
  84.0585430  59.1275210  54.0746510  85.1380970  60.1317960  53.7313280
  84.9725230  55.4654830  50.8425200  84.0328900  55.6268790  50.9277660
  85.2908490  56.1840510  50.2961190  89.0153440  60.7558130  54.3493290
  88.3965860  60.4177680  53.7019590  88.9977890  60.1117890  55.0572480
  80.5912790  59.7202570  56.6277770  80.1869790  59.0079820  56.1323670
  80.6775910  59.3755810  57.5165810  87.1918140  59.9944940  51.3566040
  87.6311420  59.1567370  51.2103860  87.9046560  60.6274340  51.4430180
  85.3013520  64.9341010  55.3247280  85.7409430  65.6765340  54.9102670
  85.2400410  65.1767580  56.2486240  77.2917420  58.6147550  54.1284420
  77.1715020  59.3409640  53.5165690  76.9818310  57.8450460  53.6512330
  76.1750420  63.4862880  56.3459240  75.7678500  63.6277470  55.4912840
  77.0663430  63.2023040  56.1430450  87.9683700  67.9210130  52.6810290
  87.8084840  67.6313070  53.5792120  87.8030410  67.1450260  52.1455520
  80.4472080  67.7008660  54.4581910  80.2714560  66.7844200  54.2449710
  79.5927820  68.0595950  54.6979710  87.6709830  65.4297690  51.2408290
  86.9774990  65.4274980  50.5810570  88.4132690  65.0057010  50.8102460
  87.2359760  67.0560400  55.3156780  87.6916710  66.2749780  55.6295400
  87.5752280  67.7667220  55.8597960  79.7581080  51.9582620  57.5108090
  79.3149230  52.7392160  57.1792610  80.3166070  52.2812510  58.2179030
  82.8739900  51.5793320  52.3913920  82.2494080  51.5753190  53.1167230
  82.7870020  50.7124280  51.9949890  79.5495300  57.0816190  55.2389340
  79.3236220  56.8653360  56.1435960  78.7687830  57.5144650  54.8935310
  86.7793060  57.0879560  53.8379990  86.1801950  57.8115360  53.6543610
  87.3272670  57.0256340  53.0556440  85.3857930  55.7243100  55.8683270
  85.7787500  56.0415300  55.0551960  85.7474780  54.8454980  55.9827790
  74.6092330  56.2564020  49.3016190  74.5267000  57.1994780  49.4431180
  74.2575390  56.1138930  48.4228540  82.4090460  54.9903050  58.3686540
  82.4126520  54.5493000  57.5191080  83.3041580  55.3120380  58.4758360
  78.2592840  54.8729540  57.3280750  77.9192890  55.3504770  58.0847800
  77.4970160  54.4194660  56.9681850  82.4710610  55.9915130  51.3593300
  82.5923430  55.9501610  52.3079120  82.0859120  56.8539280  51.2040030
  81.4832110  58.3016270  50.7576600  80.9149010  57.8534520  50.1312510
  82.1921110  58.6609050  50.2241750  75.5738920  53.7948520  56.2445420
  75.2885840  53.4304190  57.0824040  75.5117780  53.0628980  55.6308560
  79.0279590  62.2974460  53.0303010  78.2541850  61.7572080  52.8701730
  79.7574220  61.7781070  52.6920770  85.2477510  52.6877780  52.9658790
  84.4342120  52.1890950  52.8904100  85.0539460  53.5276030  52.5495140
  87.9625900  57.0597430  51.2620950  88.8505520  57.3714660  51.0872290
  87.9330990  56.1869680  50.8701530  79.0716990  61.9654840  56.6681820
  79.5895660  61.1623100  56.6138710  78.6201010  61.9033980  57.5098650
  83.9586490  63.2321120  51.9409120  84.3002190  63.9763350  51.4452440
  83.1299200  63.5452240  52.3033950  86.8413900  62.5536960  57.3054630
  87.1937720  61.9565090  56.6456000  85.9576230  62.2281190  57.4762880
  82.9277180  63.3134650  54.7125040  83.6148310  63.8603860  55.0932630
  82.1409600  63.8575380  54.7474650  75.0669580  58.9307470  50.2042120
  75.9364430  59.2132270  50.4878040  74.5759900  59.7443340  50.0890930
  82.2304390  60.3180680  54.3250400  82.6867170  61.1285930  54.5510590
  81.8792600  60.0003820  55.1568890  78.1316170  50.6618330  54.7972920
  78.0030800  50.6536230  55.7457840  77.3078190  51.0001420  54.4463930
  89.6524800  64.1167990  49.9959290  89.4262380  63.3998430  50.5883930
  89.2621000  63.8680430  49.1581040  75.4340830  68.1434850  50.7703750
  75.7938470  68.7424190  50.1161020  75.2933170  68.6894740  51.5438780
  89.2341050  62.0339930  51.6573450  88.9462750  62.4952620  52.4451330
  90.0293220  61.5737700  51.9257670  81.4509450  65.5266050  51.5877420
  81.4419550  66.2595740  50.9721930  80.5307810  65.2797630  51.6804380
  77.0516090  60.7480940  52.3324180  76.4444040  61.4879840  52.3419480
  77.5265440  60.8380300  51.5062380  89.9910910  53.8688700  52.8168630
  89.3624070  53.9734370  52.1026860  89.4962830  54.0885480  53.6062510
  84.4369050  65.5894290  50.2502610  84.5381030  65.3858280  49.3204590
  83.5370790  65.3352570  50.4550390  81.9594940  56.1474650  54.2326510
  81.2511090  56.6160990  54.6740120  82.2439420  55.4896660  54.8671700
  85.9910370  52.8725310  55.6722300  85.8678150  52.8911440  54.7231810
  86.9394930  52.9204250  55.7920700  83.0787160  68.1080610  54.9450280
  83.3328660  68.0702000  54.0229650  82.1299640  67.9813940  54.9378530
  80.1629960  54.4559730  51.6077220  81.0120490  54.8929880  51.5417410
  79.7961230  54.7679990  52.4349280  89.0839740  59.0272490  56.5208790
  88.1429880  59.0422720  56.6956480  89.3983810  58.2408450  56.9669090
  79.0621380  60.7092090  50.0812750  79.8284650  60.5973450  50.6438180
  79.1396070  60.0130060  49.4289520  77.7568140  58.1417160  50.7645640
  77.8371730  57.1944670  50.8763040  78.6487890  58.4724040  50.8706300
  78.5582850  68.2912550  57.8680180  79.2945330  67.7428010  58.1388750
  78.9423770  69.1568560  57.7286170  75.4428330  64.3586120  53.7421690
  74.5168110  64.6007260  53.7327100  75.9084760  65.1860380  53.6206440
  81.6685160  67.4642860  49.6905750  82.4613770  67.7531690  49.2387540
  81.1489510  67.0335030  49.0118230  82.1862560  62.6846270  49.5548100
  82.0813200  62.0698620  50.2809480  82.0186780  62.1612160  48.7711110
  85.4265290  61.7466300  50.1590090  84.8775390  62.1935600  50.8032830
  86.0484550  61.2415550  50.6827760  81.0940410  60.7057220  52.0555390
  81.5156830  60.5397090  52.8986780  81.2191250  59.8957450  51.5610530
  83.6068050  59.7294830  49.3032490  84.1273710  59.0143850  48.9373640
  84.2536450  60.3680700  49.6033000  79.9899310  56.7790450  49.0013550
  79.7888370  55.9157810  49.3626890  79.8191360  56.6923810  48.0635150
  87.4687620  51.5898680  51.5300430  87.7489910  50.7466580  51.8859850
  86.6953350  51.8221790  52.0439180  78.7882110  53.8791070  48.9891430
  79.0908010  53.8858500  48.0810580  79.5276700  53.5288930  49.4859090
  82.0067040  52.8225690  49.9747630  81.6589040  52.1449680  49.3950080
  82.2079810  52.3615200  50.7891020  84.1716080  67.8106440  51.5934230
  85.0666870  68.1491410  51.6152990  84.2033710  67.0885850  50.9658510
  77.8112240  63.1833490  49.8221230  78.2487110  63.7263160  50.4778810
  78.2959970  62.3580440  49.8317570  75.0258040  65.9722520  57.2741490
  75.3561050  65.1043580  57.0420130  75.4549040  66.1781040  58.1046450
  79.6219960  64.3031530  54.9343460  79.3215500  64.1796500  55.8347370
  79.5157450  63.4440120  54.5259190  75.3472680  59.3513340  56.3712000
  74.6921520  59.0824980  55.7271700  76.1850630  59.2417820  55.9213980
  88.2963120  54.1454630  50.5930490  88.7148000  53.9585610  49.7527150
  87.9899180  53.2933680  50.9033420  74.5610760  56.5612270  52.3137330
  73.6574840  56.8242470  52.1388990  75.0451380  56.8323440  51.5337290
  77.1037970  55.6177810  50.2231710  77.8129670  55.1961030  49.7378990
  76.3877910  55.6853040  49.5915060  76.7512130  51.6717140  49.2634360
  77.4740260  52.2126080  49.5815580  77.0236650  51.3980560  48.3875900
  89.3839630  52.1086020  58.3805300  89.8247720  52.0531120  57.5326900
  89.1147220  53.0244030  58.4515480  75.5530950  67.8793620  55.3538070
  75.3852990  67.2464300  56.0519960  74.6865460  68.0853020  55.0032260
  76.1758970  51.7110400  52.8569930  76.9338330  51.8239280  52.2833960
  75.7136140  52.5479600  52.8113360  82.7172780  53.8249670  55.8472240
  81.9047290  53.4506560  55.5068120  83.2214420  53.0694750  56.1493430
  87.2197760  50.4892120  57.0855310  87.8227130  51.0612330  57.5603830
  86.4790750  51.0531560  56.8629210  77.1593650  66.5726850  52.7988210
  76.6341270  66.9534880  52.0950170  77.0838230  67.1977620  53.5197920
  78.5484120  52.2374450  51.3971900  79.0776880  51.4504250  51.2679850
  79.1812440  52.9165640  51.6307430  80.7421960  51.9749590  54.4517290
  80.1124700  51.2736900  54.6187420  80.2027100  52.7353720  54.2350450
  79.7586620  68.5209230  51.6737460  80.4905440  68.2368510  51.1261350
  80.0180290  68.2822510  52.5636840  78.9201410  64.6373960  51.6783790
  78.2910290  65.1059060  52.2269620  79.0349240  63.7923180  52.1129980
  86.3751130  58.6879620  37.8284990  86.2945180  57.7734230  37.5576700
  85.9615550  59.1846690  37.1224700  84.5069170  60.4658640  39.7094260
  83.7311270  59.9859080  39.9992830  85.1582100  59.7864290  39.5350420
  78.5235000  60.7778450  40.5870020  77.6919880  60.5227160  40.9866530
  79.1315980  60.8489220  41.3227940  88.5276600  64.8718830  38.4893390
  88.0658130  64.1006070  38.8180560  89.3402150  64.8984900  38.9945840
  78.5036260  64.8118540  40.7828040  78.8064300  63.9216280  40.6038260
  79.2479850  65.3688760  40.5550290  76.9326950  55.7380340  34.3712410
  76.0443650  56.0796310  34.2692290  77.2168140  55.5380660  33.4793240
  74.8959960  58.3385990  40.2552110  75.4676070  57.5708190  40.2555750
  74.8961500  58.6374750  39.3458720  84.7539910  67.1576840  38.1097380
  84.1351350  67.6134340  37.5391820  85.6091690  67.3128300  37.7087080
  83.9478160  63.1415830  39.7164420  83.8786440  62.2005770  39.5553550
  84.7098020  63.2317240  40.2886990  76.1384830  53.7470350  42.0421040
  75.9587670  52.8496100  42.3223800  75.7364910  54.2942220  42.7167990
  84.9783330  55.9486210  39.9433350  85.3548150  55.0758090  39.8307020
  84.8802840  56.2844910  39.0523790  79.1088340  54.3211840  35.4050790
  79.2155090  55.2215570  35.7119550  78.1980700  54.2729810  35.1145440
  88.7607450  53.4436650  36.8761690  89.5817070  52.9533220  36.9187170
  88.7941530  54.0334310  37.6293530  76.7571500  56.2430850  40.6503380
  77.4381610  56.5069220  41.2690780  76.4419550  55.4031720  40.9841390
  80.9496070  57.2898210  39.7375970  81.4574290  57.7879180  40.3780990
  81.4809310  56.5133410  39.5615330  79.2332170  51.9296770  44.0039390
  79.2350610  52.4469160  43.1985290  78.4036480  51.4526950  43.9809320
  85.6203260  62.0416080  35.5029290  85.0020530  62.5065530  34.9392010
  86.1326510  62.7343560  35.9198800  80.4835020  61.5691950  42.1812890
  80.1504400  62.1960870  42.8233960  80.6601700  62.0953830  41.4014560
  88.9968930  55.3837030  39.6489230  88.2924500  55.6721920  40.2292340
  89.3581090  56.1937140  39.2888790  78.9147500  53.6406730  42.0109840
  79.2564310  54.4848780  41.7163710  77.9763310  53.7890470  42.1275180
  79.6954120  63.5372750  43.9962070  80.3128120  64.2123830  43.7146520
  78.8347240  63.9460730  43.9049570  74.9886460  62.7272610  32.8768920
  74.6114440  63.2159710  32.1453820  75.2459530  63.3997890  33.5075450
  82.5975390  51.1289000  38.3354430  82.9050370  50.5735890  37.6189930
  81.6676090  51.2633460  38.1527420  88.1490450  66.8456290  40.6261890
  88.1617610  66.4418580  39.7584150  87.5965670  67.6203580  40.5223320
  89.4435870  63.5672510  35.7152060  89.3332200  62.6246840  35.8401480
  89.4404120  63.9288150  36.6014820  87.5475890  61.7486130  41.9544500
  87.9644680  61.5346240  41.1197960  88.2715710  62.0058920  42.5253120
  84.9856150  59.1937830  35.0714550  84.0585430  59.1275210  35.3003020
  85.1380970  60.1317960  34.9569790  84.9725230  55.4654830  32.0681710
  84.0328900  55.6268790  32.1534170  85.2908490  56.1840510  31.5217700
  89.0153440  60.7558130  35.5749800  88.3965860  60.4177680  34.9276100
  88.9977890  60.1117890  36.2828990  88.4580000  56.9342670  42.9915610
  88.0451180  57.7596380  43.2455600  87.7255950  56.3487710  42.7991970
  80.5912790  59.7202570  37.8534280  80.1869790  59.0079820  37.3580180
  80.6775910  59.3755810  38.7422320  81.0594490  63.4070130  40.0173490
  80.7622780  62.8015600  39.3381270  82.0094310  63.4447440  39.9062850
  79.3041410  56.4945780  41.6333320  79.8556000  56.6041120  40.8586570
  79.8184920  56.8683380  42.3488550  89.1480100  66.9802000  43.6796590
  88.6710660  67.7874190  43.4869200  88.4641890  66.3280330  43.8322800
  80.1512920  63.1451820  46.6681290  79.2541450  63.3691790  46.9154690
  80.1765790  63.2686760  45.7192690  87.1918140  59.9944940  32.5822550
  87.6311420  59.1567370  32.4360370  87.9046560  60.6274340  32.6686690
  78.9784140  60.0165140  45.2438660  78.8391910  60.8887940  45.6126060
  78.0965500  59.6737950  45.0986600  85.3013520  64.9341010  36.5503790
  85.7409430  65.6765340  36.1359180  85.2400410  65.1767580  37.4742750
  80.7764490  65.9586840  47.4523810  80.7479920  66.3629790  46.5852240
  80.6129460  65.0297200  47.2895410  77.2917420  58.6147550  35.3540930
  77.1715020  59.3409640  34.7422200  76.9818310  57.8450460  34.8768840
  74.9302790  61.7862690  41.1609570  75.0083210  61.9211460  40.2165290
  75.5444470  61.0778580  41.3537690  76.1750420  63.4862880  37.5715750
  75.7678500  63.6277470  36.7169350  77.0663430  63.2023040  37.3686960
  85.9929300  67.6354790  44.4782800  86.5073970  67.5462800  45.2805230
  85.1498380  67.9814490  44.7710710  87.9683700  67.9210130  33.9066800
  87.8084840  67.6313070  34.8048630  87.8030410  67.1450260  33.3712030
  80.4472080  67.7008660  35.6838420  80.2714560  66.7844200  35.4706220
  79.5927820  68.0595950  35.9236220  87.6709830  65.4297690  32.4664800
  86.9774990  65.4274980  31.8067080  88.4132690  65.0057010  32.0358970
  87.2359760  67.0560400  36.5413290  87.6916710  66.2749780  36.8551910
  87.5752280  67.7667220  37.0854470  74.9862310  62.8276860  43.7004030
  75.1493350  62.3582220  42.8823400  75.4514760  62.3200420  44.3652870
  79.7581080  51.9582620  38.7364600  79.3149230  52.7392160  38.4049120
  80.3166070  52.2812510  39.4435540  84.0450890  54.8251140  44.3399920
  83.5830260  55.0334160  45.1519860  83.6429000  54.0110490  44.0370590
  89.0455400  56.0460090  45.4696580  88.1948990  55.7465840  45.7905650
  88.8857190  56.2902100  44.5580400  86.1405110  57.5461840  47.5695370
  86.4658520  56.7125590  47.2297600  86.9285440  58.0690360  47.7173700
  82.8739900  51.5793320  33.6170430  82.2494080  51.5753190  34.3423740
  82.7870020  50.7124280  33.2206400  81.7956980  52.5029950  40.5954200
  82.0929310  53.4092780  40.5146220  82.3442540  52.0148730  39.9813770
  79.5495300  57.0816190  36.4645850  79.3236220  56.8653360  37.3692470
  78.7687830  57.5144650  36.1191820  86.7793060  57.0879560  35.0636500
  86.1801950  57.8115360  34.8800120  87.3272670  57.0256340  34.2812950
  81.9894510  57.9801770  47.1306120  81.8938110  57.0396500  46.9806520
  82.8326490  58.2016840  46.7354190  85.3857930  55.7243100  37.0939780
  85.7787500  56.0415300  36.2808470  85.7474780  54.8454980  37.2084300
  77.1205050  54.3915440  45.2839900  76.7268440  55.2390650  45.4912680
  76.4323450  53.7541810  45.4748540  83.6950100  54.4750410  48.3536640
  83.0048420  54.2822610  48.9882730  84.4382400  54.7585050  48.8860940
  74.4222100  52.3143900  39.3169980  74.1335150  52.8846760  40.0294960
  75.1667860  51.8348350  39.6801210  74.6092330  56.2564020  30.5272700
  74.5267000  57.1994780  30.6687690  74.2575390  56.1138930  29.6485050
  85.9713070  58.3148850  41.1890560  85.2394190  58.8235660  41.5380660
  85.5737410  57.4978830  40.8879340  82.4090460  54.9903050  39.5943050
  82.4126520  54.5493000  38.7447590  83.3041580  55.3120380  39.7014870
  78.2592840  54.8729540  38.5537260  77.9192890  55.3504770  39.3104310
  77.4970160  54.4194660  38.1938360  82.4710610  55.9915130  32.5849810
  82.5923430  55.9501610  33.5335630  82.0859120  56.8539280  32.4296540
  86.4338980  53.7682530  40.6013500  86.4511720  54.2191180  41.4455350
  86.1854560  52.8688170  40.8146940  81.4832110  58.3016270  31.9833110
  80.9149010  57.8534520  31.3569020  82.1921110  58.6609050  31.4498260
  89.8609730  51.1814710  46.4399880  90.1855500  50.4504370  46.9657860
  89.8966240  50.8628350  45.5380870  76.5601290  62.2028290  45.8599840
  76.1756080  61.5621960  46.4582800  76.8713480  62.9064410  46.4294570
  82.7098430  59.0504830  41.3408460  83.0768560  58.5763400  42.0869800
  82.5203490  59.9246400  41.6816800  75.5738920  53.7948520  37.4701930
  75.2885840  53.4304190  38.3080550  75.5117780  53.0628980  36.8565070
  80.4997800  58.0913470  43.6592670  80.1954870  58.9705450  43.8843030
  81.4544260  58.1513260  43.6950110  79.0279590  62.2974460  34.2559520
  78.2541850  61.7572080  34.0958240  79.7574220  61.7781070  33.9177280
  85.2477510  52.6877780  34.1915300  84.4342120  52.1890950  34.1160610
  85.0539460  53.5276030  33.7751650  85.1686370  61.3648880  45.9354910
  85.1023680  60.4444550  45.6812500  84.5391510  61.4624320  46.6499550
  87.9625900  57.0597430  32.4877460  88.8505520  57.3714660  32.3128800
  87.9330990  56.1869680  32.0958040  79.0716990  61.9654840  37.8938330
  79.5895660  61.1623100  37.8395220  78.6201010  61.9033980  38.7355160
  83.9586490  63.2321120  33.1665630  84.3002190  63.9763350  32.6708950
  83.1299200  63.5452240  33.5290460  76.5561530  58.9316210  44.8064030
  76.1976470  59.5970060  45.3937370  76.2616090  58.0999760  45.1776650
  79.7574650  59.3900450  47.6903580  79.4574790  59.5357630  46.7931400
  80.5285890  58.8305740  47.5976970  85.1003100  64.1869450  45.6858710
  85.1147640  63.2550410  45.4677620  84.3928200  64.2729210  46.3248480
  86.8413900  62.5536960  38.5311140  87.1937720  61.9565090  37.8712510
  85.9576230  62.2281190  38.7019390  82.9277180  63.3134650  35.9381550
  83.6148310  63.8603860  36.3189140  82.1409600  63.8575380  35.9731160
  75.0669580  58.9307470  31.4298630  75.9364430  59.2132270  31.7134550
  74.5759900  59.7443340  31.3147440  82.2304390  60.3180680  35.5506910
  82.6867170  61.1285930  35.7767100  81.8792600  60.0003820  36.3825400
  84.5337000  65.8287020  42.7799210  85.1779220  66.0346400  43.4572630
  84.8966440  65.0675420  42.3270060  78.1316170  50.6618330  36.0229430
  78.0030800  50.6536230  36.9714350  77.3078190  51.0001420  35.6720440
  85.8069080  63.8319370  41.4976660  86.4491310  63.1312530  41.6108830
  86.3318430  64.6117810  41.3173550  89.6524800  64.1167990  31.2215800
  89.4262380  63.3998430  31.8140440  89.2621000  63.8680430  30.3837550
  87.5806700  64.6314270  44.7012720  87.9162940  65.2180960  45.3790640
  86.6607040  64.5006980  44.9310510  75.4340830  68.1434850  31.9960260
  75.7938470  68.7424190  31.3417530  75.2933170  68.6894740  32.7695290
  75.1310100  52.4209450  45.4836130  74.4168620  52.6206370  46.0888740
  75.5505140  51.6449020  45.8550930  89.2341050  62.0339930  32.8829960
  88.9462750  62.4952620  33.6707840  90.0293220  61.5737700  33.1514180
  75.4182690  66.4089710  46.4702660  75.5273810  65.4684450  46.3298050
  74.7663250  66.6744460  45.8216390  83.4095280  64.6805600  47.8700780
  83.0892150  63.9614840  48.4146470  82.7353640  65.3560670  47.9436840
  81.4509450  65.5266050  32.8133930  81.4419550  66.2595740  32.1978440
  80.5307810  65.2797630  32.9060890  77.0516090  60.7480940  33.5580690
  76.4444040  61.4879840  33.5675990  77.5265440  60.8380300  32.7318890
  86.6248880  54.9131760  43.2337580  86.9929700  54.0926970  43.5617150
  85.7647080  54.9733650  43.6493230  89.9910910  53.8688700  34.0425140
  89.3624070  53.9734370  33.3283370  89.4962830  54.0885480  34.8319020
  84.4369050  65.5894290  31.4759120  84.5381030  65.3858280  30.5461100
  83.5370790  65.3352570  31.6806900  81.9594940  56.1474650  35.4583020
  81.2511090  56.6160990  35.8996630  82.2439420  55.4896660  36.0928210
  83.5850870  57.5671350  43.4575550  84.0836120  58.0417170  44.1227400
  83.7273820  56.6434870  43.6645580  85.9910370  52.8725310  36.8978810
  85.8678150  52.8911440  35.9488320  86.9394930  52.9204250  37.0177210
  83.0787160  68.1080610  36.1706790  83.3328660  68.0702000  35.2486160
  82.1299640  67.9813940  36.1635040  80.1629960  54.4559730  32.8333730
  81.0120490  54.8929880  32.7673920  79.7961230  54.7679990  33.6605790
  89.0839740  59.0272490  37.7465300  88.1429880  59.0422720  37.9212990
  89.3983810  58.2408450  38.1925600  79.0621380  60.7092090  31.3069260
  79.8284650  60.5973450  31.8694690  79.1396070  60.0130060  30.6546030
  77.7568140  58.1417160  31.9902150  77.8371730  57.1944670  32.1019550
  78.6487890  58.4724040  32.0962810  78.5582850  68.2912550  39.0936690
  79.2945330  67.7428010  39.3645260  78.9423770  69.1568560  38.9542680
  75.4428330  64.3586120  34.9678200  74.5168110  64.6007260  34.9583610
  75.9084760  65.1860380  34.8462950  77.5641130  67.4758620  48.2822270
  78.3653860  67.7970670  48.6957670  77.0492950  67.1154200  49.0042180
  81.6685160  67.4642860  30.9162260  82.4613770  67.7531690  30.4644050
  81.1489510  67.0335030  30.2374740  86.4005760  63.5838490  48.2297680
  85.7943920  63.6070090  47.4893430  86.0959870  62.8521530  48.7664930
  87.8306130  67.3118780  46.8407090  88.7827880  67.2276800  46.7907330
  87.6834350  67.9760490  47.5140880  75.2838940  59.9632080  47.2258320
  75.7877960  59.3839360  47.7974550  74.5446360  60.2472310  47.7634690
  82.1862560  62.6846270  30.7804610  82.0813200  62.0698620  31.5065990
  82.0186780  62.1612160  29.9967620  82.3376880  61.3703070  46.7593840
  81.5722550  61.9388070  46.6748510  82.5192840  61.0779280  45.8662070
  85.4265290  61.7466300  31.3846600  84.8775390  62.1935600  32.0289340
  86.0484550  61.2415550  31.9084270  89.4800230  63.1008400  47.3168860
  90.2209700  63.4384160  46.8136320  88.7172910  63.2700460  46.7638630
  77.3162020  58.1061670  48.1208390  77.3567360  57.8075540  49.0293620
  78.1707520  58.5069280  47.9615910  81.0940410  60.7057220  33.2811900
  81.5156830  60.5397090  34.1243290  81.2191250  59.8957450  32.7867040
  79.2567830  56.6853770  46.0882880  78.7264290  56.1944720  45.4606220
  79.9255900  57.1137970  45.5540810  83.6068050  59.7294830  30.5289000
  84.1273710  59.0143850  30.1630150  84.2536450  60.3680700  30.8289510
  88.1545890  61.1523230  45.8524070  88.5686910  61.3068310  46.7014490
  87.2196890  61.2778450  46.0149850  88.6268060  58.4919390  47.8563220
  89.2088830  57.7371710  47.7683700  88.8029830  59.0226830  47.0794700
  79.7440130  53.6516140  46.1680170  79.6497000  53.0336890  45.4431040
  79.1637520  54.3782430  45.9410080  82.5101570  52.2089380  43.2007560
  82.0618870  52.2313640  42.3553110  81.8766770  51.8108400  43.7977860
  82.9161120  61.1043710  43.8220000  83.3349230  61.9476440  43.6496240
  81.9969750  61.2415750  43.5926780  85.2525020  58.8359890  45.2057840
  85.3721230  58.2401030  45.9452680  86.1119020  58.8729580  44.7859140
  87.5912920  59.3897080  43.7820350  87.0648140  59.9139700  43.1785490
  87.9344260  60.0224470  44.4130080  79.9899310  56.7790450  30.2270060
  79.7888370  55.9157810  30.5883400  79.8191360  56.6923810  29.2891660
  80.7668540  67.4096720  44.9377730  80.2289630  68.1342780  44.6186430
  81.0202500  66.9327060  44.1475070  82.0193790  55.3781240  46.4633660
  82.6093480  55.0697090  47.1511480  81.2014030  54.9060990  46.6193560
  86.8387220  54.9947050  46.6966680  86.1502740  54.3328590  46.6316670
  87.5593240  54.5485320  47.1415140  87.4687620  51.5898680  32.7556940
  87.7489910  50.7466580  33.1116360  86.6953350  51.8221790  33.2695690
  78.7882110  53.8791070  30.2147940  79.0908010  53.8858500  29.3067090
  79.5276700  53.5288930  30.7115600  83.6230750  68.6447930  45.1964380
  83.5489450  69.5483070  45.5036750  82.7209590  68.3259830  45.1686450
  82.0067040  52.8225690  31.2004140  81.6589040  52.1449680  30.6206590
  82.2079810  52.3615200  32.0147530  84.1716080  67.8106440  32.8190740
  85.0666870  68.1491410  32.8409500  84.2033710  67.0885850  32.1915020
  77.8112240  63.1833490  31.0477740  78.2487110  63.7263160  31.7035320
  78.2959970  62.3580440  31.0574080  75.0258040  65.9722520  38.4998000
  75.3561050  65.1043580  38.2676640  75.4549040  66.1781040  39.3302960
  79.6219960  64.3031530  36.1599970  79.3215500  64.1796500  37.0603880
  79.5157450  63.4440120  35.7515700  75.5148250  66.8393110  41.2379630
  75.0779240  67.0193910  42.0703780  76.0825930  67.5967730  41.0961350
  75.3472680  59.3513340  37.5968510  74.6921520  59.0824980  36.9528210
  76.1850630  59.2417820  37.1470490  89.8362070  63.0662090  43.6233100
  89.0221910  63.4959250  43.8858890  90.2436270  63.6780500  43.0102150
  88.2963120  54.1454630  31.8187000  88.7148000  53.9585610  30.9783660
  87.9899180  53.2933680  32.1289930  76.3848610  59.7365910  42.1371850
  76.7521650  59.6493310  43.0167870  75.8159430  58.9732460  42.0378710
  75.9364610  56.6475000  46.0430270  75.0420660  56.6141760  46.3823980
  76.4762160  56.8461790  46.8081520  74.5610760  56.5612270  33.5393840
  73.6574840  56.8242470  33.3645500  75.0451380  56.8323440  32.7593800
  77.1037970  55.6177810  31.4488220  77.8129670  55.1961030  30.9635500
  76.3877910  55.6853040  30.8171570  76.7512130  51.6717140  30.4890870
  77.4740260  52.2126080  30.8072090  77.0236650  51.3980560  29.6132410
  76.4404320  50.9223330  40.3913490  77.0880510  50.3720710  39.9508650
  76.8606160  51.1766480  41.2129300  76.1936320  51.0779000  43.1338810
  75.8451140  51.5342820  43.8996990  75.8624020  50.1836130  43.2161240
  77.8000690  64.2498600  47.2992000  77.7570320  63.8791510  48.1806460
  77.9311700  65.1876170  47.4393820  81.5006720  65.8058190  42.9001720
  81.2598080  66.0732750  42.0132240  82.4409360  65.9763920  42.9552580
  83.7061140  52.2690880  46.6558230  83.6450030  52.8612710  47.4053640
  84.6461520  52.1616840  46.5108490  86.3435700  51.9260940  46.2950520
  86.9576110  52.2440230  45.6331600  86.8885260  51.4409530  46.9146380
  76.8656960  50.6055200  46.4089580  77.4139950  50.4243250  45.6455690
  76.9312270  49.8149310  46.9445890  77.6388720  67.1960850  44.4189780
  77.0449040  67.0645550  45.1579820  77.6312560  66.3598990  43.9531880
  87.0843740  50.4893080  42.6219810  86.2103580  50.8228190  42.4192740
  86.9754490  50.0166260  43.4471680  87.9915720  52.6963950  44.0061530
  87.6629080  51.8815710  43.6263260  88.9398020  52.6533760  43.8827220
  77.2700950  64.5619230  43.3697820  76.5435010  63.9424520  43.3023770
  77.3310100  64.9559840  42.4995900  80.8746050  66.7764230  40.1547230
  81.3911070  66.1651590  39.6295490  81.5243430  67.2793010  40.6458240
  83.6141550  67.6672720  40.9816210  83.9019360  67.4127020  40.1049220
  84.1264770  67.1150080  41.5721780  84.8318560  51.4062920  41.5612720
  84.0490350  51.8808420  41.8409480  84.5381490  50.5017750  41.4525900
  89.3839630  52.1086020  39.6061810  89.8247720  52.0531120  38.7583410
  89.1147220  53.0244030  39.6771990  75.5530950  67.8793620  36.5794580
  75.3852990  67.2464300  37.2776470  74.6865460  68.0853020  36.2288770
  76.1758970  51.7110400  34.0826440  76.9338330  51.8239280  33.5090470
  75.7136140  52.5479600  34.0369870  82.7172780  53.8249670  37.0728750
  81.9047290  53.4506560  36.7324630  83.2214420  53.0694750  37.3749940
  87.2197760  50.4892120  38.3111820  87.8227130  51.0612330  38.7860340
  86.4790750  51.0531560  38.0885720  77.1593650  66.5726850  34.0244720
  76.6341270  66.9534880  33.3206680  77.0838230  67.1977620  34.7454430
  78.5484120  52.2374450  32.6228410  79.0776880  51.4504250  32.4936360
  79.1812440  52.9165640  32.8563940  80.7421960  51.9749590  35.6773800
  80.1124700  51.2736900  35.8443930  80.2027100  52.7353720  35.4606960
  83.6813910  68.5888820  48.3484410  84.6081220  68.3533090  48.3920370
  83.6664340  69.4160820  47.8670440  80.8677520  51.2533570  48.1126290
  80.5861790  51.7567170  47.3487110  81.2497220  50.4555320  47.7468420
  79.7586620  68.5209230  32.8993970  80.4905440  68.2368510  32.3517860
  80.0180290  68.2822510  33.7893350  78.9201410  64.6373960  32.9040300
  78.2910290  65.1059060  33.4526130  79.0349240  63.7923180  33.3386490
  87.4692980  50.6687150  48.6906760  87.3558430  50.9881760  49.5858280
  88.2862720  51.0699660  48.3944040  86.3751130  58.6879620  19.0541500
  86.2945180  57.7734230  18.7833210  85.9615550  59.1846690  18.3481210
  84.5069170  60.4658640  20.9350770  83.7311270  59.9859080  21.2249340
  85.1582100  59.7864290  20.7606930  78.5235000  60.7778450  21.8126530
  77.6919880  60.5227160  22.2123040  79.1315980  60.8489220  22.5484450
  88.5276600  64.8718830  19.7149900  88.0658130  64.1006070  20.0437070
  89.3402150  64.8984900  20.2202350  78.5036260  64.8118540  22.0084550
  78.8064300  63.9216280  21.8294770  79.2479850  65.3688760  21.7806800
  76.9326950  55.7380340  15.5968920  76.0443650  56.0796310  15.4948800
  77.2168140  55.5380660  14.7049750  74.8959960  58.3385990  21.4808620
  75.4676070  57.5708190  21.4812260  74.8961500  58.6374750  20.5715230
  84.7539910  67.1576840  19.3353890  84.1351350  67.6134340  18.7648330
  85.6091690  67.3128300  18.9343590  83.9478160  63.1415830  20.9420930
  83.8786440  62.2005770  20.7810060  84.7098020  63.2317240  21.5143500
  76.1384830  53.7470350  23.2677550  75.9587670  52.8496100  23.5480310
  75.7364910  54.2942220  23.9424500  84.9783330  55.9486210  21.1689860
  85.3548150  55.0758090  21.0563530  84.8802840  56.2844910  20.2780300
  79.1088340  54.3211840  16.6307300  79.2155090  55.2215570  16.9376060
  78.1980700  54.2729810  16.3401950  88.7607450  53.4436650  18.1018200
  89.5817070  52.9533220  18.1443680  88.7941530  54.0334310  18.8550040
  76.7571500  56.2430850  21.8759890  77.4381610  56.5069220  22.4947290
  76.4419550  55.4031720  22.2097900  80.9496070  57.2898210  20.9632480
  81.4574290  57.7879180  21.6037500  81.4809310  56.5133410  20.7871840
  79.2332170  51.9296770  25.2295900  79.2350610  52.4469160  24.4241800
  78.4036480  51.4526950  25.2065830  85.6203260  62.0416080  16.7285800
  85.0020530  62.5065530  16.1648520  86.1326510  62.7343560  17.1455310
  80.4835020  61.5691950  23.4069400  80.1504400  62.1960870  24.0490470
  80.6601700  62.0953830  22.6271070  88.9968930  55.3837030  20.8745740
  88.2924500  55.6721920  21.4548850  89.3581090  56.1937140  20.5145300
  78.9147500  53.6406730  23.2366350  79.2564310  54.4848780  22.9420220
  77.9763310  53.7890470  23.3531690  79.6954120  63.5372750  25.2218580
  80.3128120  64.2123830  24.9403030  78.8347240  63.9460730  25.1306080
  74.9886460  62.7272610  14.1025430  74.6114440  63.2159710  13.3710330
  75.2459530  63.3997890  14.7331960  82.5975390  51.1289000  19.5610940
  82.9050370  50.5735890  18.8446440  81.6676090  51.2633460  19.3783930
  88.1490450  66.8456290  21.8518400  88.1617610  66.4418580  20.9840660
  87.5965670  67.6203580  21.7479830  89.4435870  63.5672510  16.9408570
  89.3332200  62.6246840  17.0657990  89.4404120  63.9288150  17.8271330
  87.5475890  61.7486130  23.1801010  87.9644680  61.5346240  22.3454470
  88.2715710  62.0058920  23.7509630  84.9856150  59.1937830  16.2971060
  84.0585430  59.1275210  16.5259530  85.1380970  60.1317960  16.1826300
  84.9725230  55.4654830  13.2938220  84.0328900  55.6268790  13.3790680
  85.2908490  56.1840510  12.7474210  89.0153440  60.7558130  16.8006310
  88.3965860  60.4177680  16.1532610  88.9977890  60.1117890  17.5085500
  88.4580000  56.9342670  24.2172120  88.0451180  57.7596380  24.4712110
  87.7255950  56.3487710  24.0248480  80.5912790  59.7202570  19.0790790
  80.1869790  59.0079820  18.5836690  80.6775910  59.3755810  19.9678830
  81.0594490  63.4070130  21.2430000  80.7622780  62.8015600  20.5637780
  82.0094310  63.4447440  21.1319360  79.3041410  56.4945780  22.8589830
  79.8556000  56.6041120  22.0843080  79.8184920  56.8683380  23.5745060
  89.1480100  66.9802000  24.9053100  88.6710660  67.7874190  24.7125710
  88.4641890  66.3280330  25.0579310  80.1512920  63.1451820  27.8937800
  79.2541450  63.3691790  28.1411200  80.1765790  63.2686760  26.9449200
  87.1918140  59.9944940  13.8079060  87.6311420  59.1567370  13.6616880
  87.9046560  60.6274340  13.8943200  78.9784140  60.0165140  26.4695170
  78.8391910  60.8887940  26.8382570  78.0965500  59.6737950  26.3243110
  85.3013520  64.9341010  17.7760300  85.7409430  65.6765340  17.3615690
  85.2400410  65.1767580  18.6999260  80.7764490  65.9586840  28.6780320
  80.7479920  66.3629790  27.8108750  80.6129460  65.0297200  28.5151920
  77.2917420  58.6147550  16.5797440  77.1715020  59.3409640  15.9678710
  76.9818310  57.8450460  16.1025350  74.9302790  61.7862690  22.3866080
  75.0083210  61.9211460  21.4421800  75.5444470  61.0778580  22.5794200
  76.1750420  63.4862880  18.7972260  75.7678500  63.6277470  17.9425860
  77.0663430  63.2023040  18.5943470  85.9929300  67.6354790  25.7039310
  86.5073970  67.5462800  26.5061740  85.1498380  67.9814490  25.9967220
  87.9683700  67.9210130  15.1323310  87.8084840  67.6313070  16.0305140
  87.8030410  67.1450260  14.5968540  80.4472080  67.7008660  16.9094930
  80.2714560  66.7844200  16.6962730  79.5927820  68.0595950  17.1492730
  87.6709830  65.4297690  13.6921310  86.9774990  65.4274980  13.0323590
  88.4132690  65.0057010  13.2615480  87.2359760  67.0560400  17.7669800
  87.6916710  66.2749780  18.0808420  87.5752280  67.7667220  18.3110980
  74.9862310  62.8276860  24.9260540  75.1493350  62.3582220  24.1079910
  75.4514760  62.3200420  25.5909380  79.7581080  51.9582620  19.9621110
  79.3149230  52.7392160  19.6305630  80.3166070  52.2812510  20.6692050
  84.0450890  54.8251140  25.5656430  83.5830260  55.0334160  26.3776370
  83.6429000  54.0110490  25.2627100  89.0455400  56.0460090  26.6953090
  88.1948990  55.7465840  27.0162160  88.8857190  56.2902100  25.7836910
  86.1405110  57.5461840  28.7951880  86.4658520  56.7125590  28.4554110
  86.9285440  58.0690360  28.9430210  82.8739900  51.5793320  14.8426940
  82.2494080  51.5753190  15.5680250  82.7870020  50.7124280  14.4462910
  81.7956980  52.5029950  21.8210710  82.0929310  53.4092780  21.7402730
  82.3442540  52.0148730  21.2070280  79.5495300  57.0816190  17.6902360
  79.3236220  56.8653360  18.5948980  78.7687830  57.5144650  17.3448330
  86.7793060  57.0879560  16.2893010  86.1801950  57.8115360  16.1056630
  87.3272670  57.0256340  15.5069460  81.9894510  57.9801770  28.3562630
  81.8938110  57.0396500  28.2063030  82.8326490  58.2016840  27.9610700
  85.3857930  55.7243100  18.3196290  85.7787500  56.0415300  17.5064980
  85.7474780  54.8454980  18.4340810  77.1205050  54.3915440  26.5096410
  76.7268440  55.2390650  26.7169190  76.4323450  53.7541810  26.7005050
  83.6950100  54.4750410  29.5793150  83.0048420  54.2822610  30.2139240
  84.4382400  54.7585050  30.1117450  74.4222100  52.3143900  20.5426490
  74.1335150  52.8846760  21.2551470  75.1667860  51.8348350  20.9057720
  74.6092330  56.2564020  11.7529210  74.5267000  57.1994780  11.8944200
  74.2575390  56.1138930  10.8741560  85.9713070  58.3148850  22.4147070
  85.2394190  58.8235660  22.7637170  85.5737410  57.4978830  22.1135850
  82.4090460  54.9903050  20.8199560  82.4126520  54.5493000  19.9704100
  83.3041580  55.3120380  20.9271380  78.2592840  54.8729540  19.7793770
  77.9192890  55.3504770  20.5360820  77.4970160  54.4194660  19.4194870
  82.4710610  55.9915130  13.8106320  82.5923430  55.9501610  14.7592140
  82.0859120  56.8539280  13.6553050  86.4338980  53.7682530  21.8270010
  86.4511720  54.2191180  22.6711860  86.1854560  52.8688170  22.0403450
  81.4832110  58.3016270  13.2089620  80.9149010  57.8534520  12.5825530
  82.1921110  58.6609050  12.6754770  89.8609730  51.1814710  27.6656390
  90.1855500  50.4504370  28.1914370  89.8966240  50.8628350  26.7637380
  76.5601290  62.2028290  27.0856350  76.1756080  61.5621960  27.6839310
  76.8713480  62.9064410  27.6551080  82.7098430  59.0504830  22.5664970
  83.0768560  58.5763400  23.3126310  82.5203490  59.9246400  22.9073310
  75.5738920  53.7948520  18.6958440  75.2885840  53.4304190  19.5337060
  75.5117780  53.0628980  18.0821580  80.4997800  58.0913470  24.8849180
  80.1954870  58.9705450  25.1099540  81.4544260  58.1513260  24.9206620
  79.0279590  62.2974460  15.4816030  78.2541850  61.7572080  15.3214750
  79.7574220  61.7781070  15.1433790  85.2477510  52.6877780  15.4171810
  84.4342120  52.1890950  15.3417120  85.0539460  53.5276030  15.0008160
  85.1686370  61.3648880  27.1611420  85.1023680  60.4444550  26.9069010
  84.5391510  61.4624320  27.8756060  87.9625900  57.0597430  13.7133970
  88.8505520  57.3714660  13.5385310  87.9330990  56.1869680  13.3214550
  79.0716990  61.9654840  19.1194840  79.5895660  61.1623100  19.0651730
  78.6201010  61.9033980  19.9611670  83.9586490  63.2321120  14.3922140
  84.3002190  63.9763350  13.8965460  83.1299200  63.5452240  14.7546970
  76.5561530  58.9316210  26.0320540  76.1976470  59.5970060  26.6193880
  76.2616090  58.0999760  26.4033160  79.7574650  59.3900450  28.9160090
  79.4574790  59.5357630  28.0187910  80.5285890  58.8305740  28.8233480
  85.1003100  64.1869450  26.9115220  85.1147640  63.2550410  26.6934130
  84.3928200  64.2729210  27.5504990  86.8413900  62.5536960  19.7567650
  87.1937720  61.9565090  19.0969020  85.9576230  62.2281190  19.9275900
  82.9277180  63.3134650  17.1638060  83.6148310  63.8603860  17.5445650
  82.1409600  63.8575380  17.1987670  75.0669580  58.9307470  12.6555140
  75.9364430  59.2132270  12.9391060  74.5759900  59.7443340  12.5403950
  82.2304390  60.3180680  16.7763420  82.6867170  61.1285930  17.0023610
  81.8792600  60.0003820  17.6081910  84.5337000  65.8287020  24.0055720
  85.1779220  66.0346400  24.6829140  84.8966440  65.0675420  23.5526570
  78.1316170  50.6618330  17.2485940  78.0030800  50.6536230  18.1970860
  77.3078190  51.0001420  16.8976950  85.8069080  63.8319370  22.7233170
  86.4491310  63.1312530  22.8365340  86.3318430  64.6117810  22.5430060
  89.6524800  64.1167990  12.4472310  89.4262380  63.3998430  13.0396950
  89.2621000  63.8680430  11.6094060  87.5806700  64.6314270  25.9269230
  87.9162940  65.2180960  26.6047150  86.6607040  64.5006980  26.1567020
  75.4340830  68.1434850  13.2216770  75.7938470  68.7424190  12.5674040
  75.2933170  68.6894740  13.9951800  75.1310100  52.4209450  26.7092640
  74.4168620  52.6206370  27.3145250  75.5505140  51.6449020  27.0807440
  89.2341050  62.0339930  14.1086470  88.9462750  62.4952620  14.8964350
  90.0293220  61.5737700  14.3770690  75.4182690  66.4089710  27.6959170
  75.5273810  65.4684450  27.5554560  74.7663250  66.6744460  27.0472900
  83.4095280  64.6805600  29.0957290  83.0892150  63.9614840  29.6402980
  82.7353640  65.3560670  29.1693350  81.4509450  65.5266050  14.0390440
  81.4419550  66.2595740  13.4234950  80.5307810  65.2797630  14.1317400
  77.0516090  60.7480940  14.7837200  76.4444040  61.4879840  14.7932500
  77.5265440  60.8380300  13.9575400  86.6248880  54.9131760  24.4594090
  86.9929700  54.0926970  24.7873660  85.7647080  54.9733650  24.8749740
  89.9910910  53.8688700  15.2681650  89.3624070  53.9734370  14.5539880
  89.4962830  54.0885480  16.0575530  84.4369050  65.5894290  12.7015630
  84.5381030  65.3858280  11.7717610  83.5370790  65.3352570  12.9063410
  81.9594940  56.1474650  16.6839530  81.2511090  56.6160990  17.1253140
  82.2439420  55.4896660  17.3184720  83.5850870  57.5671350  24.6832060
  84.0836120  58.0417170  25.3483910  83.7273820  56.6434870  24.8902090
  85.9910370  52.8725310  18.1235320  85.8678150  52.8911440  17.1744830
  86.9394930  52.9204250  18.2433720  83.0787160  68.1080610  17.3963300
  83.3328660  68.0702000  16.4742670  82.1299640  67.9813940  17.3891550
  80.1629960  54.4559730  14.0590240  81.0120490  54.8929880  13.9930430
  79.7961230  54.7679990  14.8862300  89.0839740  59.0272490  18.9721810
  88.1429880  59.0422720  19.1469500  89.3983810  58.2408450  19.4182110
  79.0621380  60.7092090  12.5325770  79.8284650  60.5973450  13.0951200
  79.1396070  60.0130060  11.8802540  77.7568140  58.1417160  13.2158660
  77.8371730  57.1944670  13.3276060  78.6487890  58.4724040  13.3219320
  78.5582850  68.2912550  20.3193200  79.2945330  67.7428010  20.5901770
  78.9423770  69.1568560  20.1799190  75.4428330  64.3586120  16.1934710
  74.5168110  64.6007260  16.1840120  75.9084760  65.1860380  16.0719460
  77.5641130  67.4758620  29.5078780  78.3653860  67.7970670  29.9214180
  77.0492950  67.1154200  30.2298690  81.6685160  67.4642860  12.1418770
  82.4613770  67.7531690  11.6900560  81.1489510  67.0335030  11.4631250
  86.4005760  63.5838490  29.4554190  85.7943920  63.6070090  28.7149940
  86.0959870  62.8521530  29.9921440  87.8306130  67.3118780  28.0663600
  88.7827880  67.2276800  28.0163840  87.6834350  67.9760490  28.7397390
  75.2838940  59.9632080  28.4514830  75.7877960  59.3839360  29.0231060
  74.5446360  60.2472310  28.9891200  82.1862560  62.6846270  12.0061120
  82.0813200  62.0698620  12.7322500  82.0186780  62.1612160  11.2224130
  82.3376880  61.3703070  27.9850350  81.5722550  61.9388070  27.9005020
  82.5192840  61.0779280  27.0918580  85.4265290  61.7466300  12.6103110
  84.8775390  62.1935600  13.2545850  86.0484550  61.2415550  13.1340780
  89.4800230  63.1008400  28.5425370  90.2209700  63.4384160  28.0392830
  88.7172910  63.2700460  27.9895140  77.3162020  58.1061670  29.3464900
  77.3567360  57.8075540  30.2550130  78.1707520  58.5069280  29.1872420
  81.0940410  60.7057220  14.5068410  81.5156830  60.5397090  15.3499800
  81.2191250  59.8957450  14.0123550  79.2567830  56.6853770  27.3139390
  78.7264290  56.1944720  26.6862730  79.9255900  57.1137970  26.7797320
  83.6068050  59.7294830  11.7545510  84.1273710  59.0143850  11.3886660
  84.2536450  60.3680700  12.0546020  88.1545890  61.1523230  27.0780580
  88.5686910  61.3068310  27.9271000  87.2196890  61.2778450  27.2406360
  88.6268060  58.4919390  29.0819730  89.2088830  57.7371710  28.9940210
  88.8029830  59.0226830  28.3051210  79.7440130  53.6516140  27.3936680
  79.6497000  53.0336890  26.6687550  79.1637520  54.3782430  27.1666590
  82.5101570  52.2089380  24.4264070  82.0618870  52.2313640  23.5809620
  81.8766770  51.8108400  25.0234370  82.9161120  61.1043710  25.0476510
  83.3349230  61.9476440  24.8752750  81.9969750  61.2415750  24.8183290
  85.2525020  58.8359890  26.4314350  85.3721230  58.2401030  27.1709190
  86.1119020  58.8729580  26.0115650  87.5912920  59.3897080  25.0076860
  87.0648140  59.9139700  24.4042000  87.9344260  60.0224470  25.6386590
  79.9899310  56.7790450  11.4526570  79.7888370  55.9157810  11.8139910
  79.8191360  56.6923810  10.5148170  80.7668540  67.4096720  26.1634240
  80.2289630  68.1342780  25.8442940  81.0202500  66.9327060  25.3731580
  82.0193790  55.3781240  27.6890170  82.6093480  55.0697090  28.3767990
  81.2014030  54.9060990  27.8450070  86.8387220  54.9947050  27.9223190
  86.1502740  54.3328590  27.8573180  87.5593240  54.5485320  28.3671650
  87.4687620  51.5898680  13.9813450  87.7489910  50.7466580  14.3372870
  86.6953350  51.8221790  14.4952200  78.7882110  53.8791070  11.4404450
  79.0908010  53.8858500  10.5323600  79.5276700  53.5288930  11.9372110
  83.6230750  68.6447930  26.4220890  83.5489450  69.5483070  26.7293260
  82.7209590  68.3259830  26.3942960  82.0067040  52.8225690  12.4260650
  81.6589040  52.1449680  11.8463100  82.2079810  52.3615200  13.2404040
  84.1716080  67.8106440  14.0447250  85.0666870  68.1491410  14.0666010
  84.2033710  67.0885850  13.4171530  77.8112240  63.1833490  12.2734250
  78.2487110  63.7263160  12.9291830  78.2959970  62.3580440  12.2830590
  75.0258040  65.9722520  19.7254510  75.3561050  65.1043580  19.4933150
  75.4549040  66.1781040  20.5559470  79.6219960  64.3031530  17.3856480
  79.3215500  64.1796500  18.2860390  79.5157450  63.4440120  16.9772210
  75.5148250  66.8393110  22.4636140  75.0779240  67.0193910  23.2960290
  76.0825930  67.5967730  22.3217860  75.3472680  59.3513340  18.8225020
  74.6921520  59.0824980  18.1784720  76.1850630  59.2417820  18.3727000
  89.8362070  63.0662090  24.8489610  89.0221910  63.4959250  25.1115400
  90.2436270  63.6780500  24.2358660  88.2963120  54.1454630  13.0443510
  88.7148000  53.9585610  12.2040170  87.9899180  53.2933680  13.3546440
  76.3848610  59.7365910  23.3628360  76.7521650  59.6493310  24.2424380
  75.8159430  58.9732460  23.2635220  75.9364610  56.6475000  27.2686780
  75.0420660  56.6141760  27.6080490  76.4762160  56.8461790  28.0338030
  74.5610760  56.5612270  14.7650350  73.6574840  56.8242470  14.5902010
  75.0451380  56.8323440  13.9850310  77.1037970  55.6177810  12.6744730
  77.8129670  55.1961030  12.1892010  76.3877910  55.6853040  12.0428080
  76.7512130  51.6717140  11.7147380  77.4740260  52.2126080  12.0328600
  77.0236650  51.3980560  10.8388920  76.4404320  50.9223330  21.6170000
  77.0880510  50.3720710  21.1765160  76.8606160  51.1766480  22.4385810
  76.1936320  51.0779000  24.3595320  75.8451140  51.5342820  25.1253500
  75.8624020  50.1836130  24.4417750  77.8000690  64.2498600  28.5248510
  77.7570320  63.8791510  29.4062970  77.9311700  65.1876170  28.6650330
  81.5006720  65.8058190  24.1258230  81.2598080  66.0732750  23.2388750
  82.4409360  65.9763920  24.1809090  83.7061140  52.2690880  27.8814740
  83.6450030  52.8612710  28.6310150  84.6461520  52.1616840  27.7365000
  86.3435700  51.9260940  27.5207030  86.9576110  52.2440230  26.8588110
  86.8885260  51.4409530  28.1402890  76.8656960  50.6055200  27.6346090
  77.4139950  50.4243250  26.8712200  76.9312270  49.8149310  28.1702400
  77.6388720  67.1960850  25.6446290  77.0449040  67.0645550  26.3836330
  77.6312560  66.3598990  25.1788390  87.0843740  50.4893080  23.8476320
  86.2103580  50.8228190  23.6449250  86.9754490  50.0166260  24.6728190
  87.9915720  52.6963950  25.2318040  87.6629080  51.8815710  24.8519770
  88.9398020  52.6533760  25.1083730  77.2700950  64.5619230  24.5954330
  76.5435010  63.9424520  24.5280280  77.3310100  64.9559840  23.7252410
  80.8746050  66.7764230  21.3803740  81.3911070  66.1651590  20.8552000
  81.5243430  67.2793010  21.8714750  83.6141550  67.6672720  22.2072720
  83.9019360  67.4127020  21.3305730  84.1264770  67.1150080  22.7978290
  84.8318560  51.4062920  22.7869230  84.0490350  51.8808420  23.0665990
  84.5381490  50.5017750  22.6782410  89.3839630  52.1086020  20.8318320
  89.8247720  52.0531120  19.9839920  89.1147220  53.0244030  20.9028500
  75.5530950  67.8793620  17.8051090  75.3852990  67.2464300  18.5032980
  74.6865460  68.0853020  17.4545280  76.1758970  51.7110400  15.3082950
  76.9338330  51.8239280  14.7346980  75.7136140  52.5479600  15.2626380
  82.7172780  53.8249670  18.2985260  81.9047290  53.4506560  17.9581140
  83.2214420  53.0694750  18.6006450  87.2197760  50.4892120  19.5368330
  87.8227130  51.0612330  20.0116850  86.4790750  51.0531560  19.3142230
  77.1593650  66.5726850  15.2501230  76.6341270  66.9534880  14.5463190
  77.0838230  67.1977620  15.9710940  78.5484120  52.2374450  13.8484920
  79.0776880  51.4504250  13.7192870  79.1812440  52.9165640  14.0820450
  80.7421960  51.9749590  16.9030310  80.1124700  51.2736900  17.0700440
  80.2027100  52.7353720  16.6863470  83.6813910  68.5888820  29.5740920
  84.6081220  68.3533090  29.6176880  83.6664340  69.4160820  29.0926950
  80.8677520  51.2533570  29.3382800  80.5861790  51.7567170  28.5743620
  81.2497220  50.4555320  28.9724930  79.7586620  68.5209230  14.1250480
  80.4905440  68.2368510  13.5774370  80.0180290  68.2822510  15.0149860
  78.9201410  64.6373960  14.1296810  78.2910290  65.1059060  14.6782640
  79.0349240  63.7923180  14.5643000  87.4692980  50.6687150  29.9163270
  87.3558430  50.9881760  30.8114790  88.2862720  51.0699660  29.6200550
  84.5069170  60.4658640   2.1607280  83.7311270  59.9859080   2.4505850
  85.1582100  59.7864290   1.9863440  78.5235000  60.7778450   3.0383040
  77.6919880  60.5227160   3.4379550  79.1315980  60.8489220   3.7740960
  78.5036260  64.8118540   3.2341060  78.8064300  63.9216280   3.0551280
  79.2479850  65.3688760   3.0063310  74.8959960  58.3385990   2.7065130
  75.4676070  57.5708190   2.7068770  74.8961500  58.6374750   1.7971740
  83.9478160  63.1415830   2.1677440  83.8786440  62.2005770   2.0066570
  84.7098020  63.2317240   2.7400010  76.1384830  53.7470350   4.4934060
  75.9587670  52.8496100   4.7736820  75.7364910  54.2942220   5.1681010
  84.9783330  55.9486210   2.3946370  85.3548150  55.0758090   2.2820040
  84.8802840  56.2844910   1.5036810  76.7571500  56.2430850   3.1016400
  77.4381610  56.5069220   3.7203800  76.4419550  55.4031720   3.4354410
  80.9496070  57.2898210   2.1888990  81.4574290  57.7879180   2.8294010
  81.4809310  56.5133410   2.0128350  79.2332170  51.9296770   6.4552410
  79.2350610  52.4469160   5.6498310  78.4036480  51.4526950   6.4322340
  80.4835020  61.5691950   4.6325910  80.1504400  62.1960870   5.2746980
  80.6601700  62.0953830   3.8527580  88.9968930  55.3837030   2.1002250
  88.2924500  55.6721920   2.6805360  89.3581090  56.1937140   1.7401810
  78.9147500  53.6406730   4.4622860  79.2564310  54.4848780   4.1676730
  77.9763310  53.7890470   4.5788200  79.6954120  63.5372750   6.4475090
  80.3128120  64.2123830   6.1659540  78.8347240  63.9460730   6.3562590
  88.1490450  66.8456290   3.0774910  88.1617610  66.4418580   2.2097170
  87.5965670  67.6203580   2.9736340  87.5475890  61.7486130   4.4057520
  87.9644680  61.5346240   3.5710980  88.2715710  62.0058920   4.9766140
  88.4580000  56.9342670   5.4428630  88.0451180  57.7596380   5.6968620
  87.7255950  56.3487710   5.2504990  81.0594490  63.4070130   2.4686510
  80.7622780  62.8015600   1.7894290  82.0094310  63.4447440   2.3575870
  79.3041410  56.4945780   4.0846340  79.8556000  56.6041120   3.3099590
  79.8184920  56.8683380   4.8001570  89.1480100  66.9802000   6.1309610
  88.6710660  67.7874190   5.9382220  88.4641890  66.3280330   6.2835820
  80.1512920  63.1451820   9.1194310  79.2541450  63.3691790   9.3667710
  80.1765790  63.2686760   8.1705710  78.9784140  60.0165140   7.6951680
  78.8391910  60.8887940   8.0639080  78.0965500  59.6737950   7.5499620
  80.7764490  65.9586840   9.9036830  80.7479920  66.3629790   9.0365260
  80.6129460  65.0297200   9.7408430  74.9302790  61.7862690   3.6122590
  75.0083210  61.9211460   2.6678310  75.5444470  61.0778580   3.8050710
  85.9929300  67.6354790   6.9295820  86.5073970  67.5462800   7.7318250
  85.1498380  67.9814490   7.2223730  74.9862310  62.8276860   6.1517050
  75.1493350  62.3582220   5.3336420  75.4514760  62.3200420   6.8165890
  84.0450890  54.8251140   6.7912940  83.5830260  55.0334160   7.6032880
  83.6429000  54.0110490   6.4883610  89.0455400  56.0460090   7.9209600
  88.1948990  55.7465840   8.2418670  88.8857190  56.2902100   7.0093420
  86.1405110  57.5461840  10.0208390  86.4658520  56.7125590   9.6810620
  86.9285440  58.0690360  10.1686720  81.7956980  52.5029950   3.0467220
  82.0929310  53.4092780   2.9659240  82.3442540  52.0148730   2.4326790
  81.9894510  57.9801770   9.5819140  81.8938110  57.0396500   9.4319540
  82.8326490  58.2016840   9.1867210  77.1205050  54.3915440   7.7352920
  76.7268440  55.2390650   7.9425700  76.4323450  53.7541810   7.9261560
  83.6950100  54.4750410  10.8049660  83.0048420  54.2822610  11.4395750
  84.4382400  54.7585050  11.3373960  74.4222100  52.3143900   1.7683000
  74.1335150  52.8846760   2.4807980  75.1667860  51.8348350   2.1314230
  85.9713070  58.3148850   3.6403580  85.2394190  58.8235660   3.9893680
  85.5737410  57.4978830   3.3392360  86.4338980  53.7682530   3.0526520
  86.4511720  54.2191180   3.8968370  86.1854560  52.8688170   3.2659960
  89.8609730  51.1814710   8.8912900  90.1855500  50.4504370   9.4170880
  89.8966240  50.8628350   7.9893890  76.5601290  62.2028290   8.3112860
  76.1756080  61.5621960   8.9095820  76.8713480  62.9064410   8.8807590
  82.7098430  59.0504830   3.7921480  83.0768560  58.5763400   4.5382820
  82.5203490  59.9246400   4.1329820  80.4997800  58.0913470   6.1105690
  80.1954870  58.9705450   6.3356050  81.4544260  58.1513260   6.1463130
  85.1686370  61.3648880   8.3867930  85.1023680  60.4444550   8.1325520
  84.5391510  61.4624320   9.1012570  76.5561530  58.9316210   7.2577050
  76.1976470  59.5970060   7.8450390  76.2616090  58.0999760   7.6289670
  79.7574650  59.3900450  10.1416600  79.4574790  59.5357630   9.2444420
  80.5285890  58.8305740  10.0489990  85.1003100  64.1869450   8.1371730
  85.1147640  63.2550410   7.9190640  84.3928200  64.2729210   8.7761500
  84.5337000  65.8287020   5.2312230  85.1779220  66.0346400   5.9085650
  84.8966440  65.0675420   4.7783080  85.8069080  63.8319370   3.9489680
  86.4491310  63.1312530   4.0621850  86.3318430  64.6117810   3.7686570
  87.5806700  64.6314270   7.1525740  87.9162940  65.2180960   7.8303660
  86.6607040  64.5006980   7.3823530  75.1310100  52.4209450   7.9349150
  74.4168620  52.6206370   8.5401760  75.5505140  51.6449020   8.3063950
  75.4182690  66.4089710   8.9215680  75.5273810  65.4684450   8.7811070
  74.7663250  66.6744460   8.2729410  83.4095280  64.6805600  10.3213800
  83.0892150  63.9614840  10.8659490  82.7353640  65.3560670  10.3949860
  86.6248880  54.9131760   5.6850600  86.9929700  54.0926970   6.0130170
  85.7647080  54.9733650   6.1006250  83.5850870  57.5671350   5.9088570
  84.0836120  58.0417170   6.5740420  83.7273820  56.6434870   6.1158600
  77.5641130  67.4758620  10.7335290  78.3653860  67.7970670  11.1470690
  77.0492950  67.1154200  11.4555200  86.4005760  63.5838490  10.6810700
  85.7943920  63.6070090   9.9406450  86.0959870  62.8521530  11.2177950
  87.8306130  67.3118780   9.2920110  88.7827880  67.2276800   9.2420350
  87.6834350  67.9760490   9.9653900  75.2838940  59.9632080   9.6771340
  75.7877960  59.3839360  10.2487570  74.5446360  60.2472310  10.2147710
  82.3376880  61.3703070   9.2106860  81.5722550  61.9388070   9.1261530
  82.5192840  61.0779280   8.3175090  89.4800230  63.1008400   9.7681880
  90.2209700  63.4384160   9.2649340  88.7172910  63.2700460   9.2151650
  77.3162020  58.1061670  10.5721410  77.3567360  57.8075540  11.4806640
  78.1707520  58.5069280  10.4128930  79.2567830  56.6853770   8.5395900
  78.7264290  56.1944720   7.9119240  79.9255900  57.1137970   8.0053830
  88.1545890  61.1523230   8.3037090  88.5686910  61.3068310   9.1527510
  87.2196890  61.2778450   8.4662870  88.6268060  58.4919390  10.3076240
  89.2088830  57.7371710  10.2196720  88.8029830  59.0226830   9.5307720
  79.7440130  53.6516140   8.6193190  79.6497000  53.0336890   7.8944060
  79.1637520  54.3782430   8.3923100  82.5101570  52.2089380   5.6520580
  82.0618870  52.2313640   4.8066130  81.8766770  51.8108400   6.2490880
  82.9161120  61.1043710   6.2733020  83.3349230  61.9476440   6.1009260
  81.9969750  61.2415750   6.0439800  85.2525020  58.8359890   7.6570860
  85.3721230  58.2401030   8.3965700  86.1119020  58.8729580   7.2372160
  87.5912920  59.3897080   6.2333370  87.0648140  59.9139700   5.6298510
  87.9344260  60.0224470   6.8643100  80.7668540  67.4096720   7.3890750
  80.2289630  68.1342780   7.0699450  81.0202500  66.9327060   6.5988090
  82.0193790  55.3781240   8.9146680  82.6093480  55.0697090   9.6024500
  81.2014030  54.9060990   9.0706580  86.8387220  54.9947050   9.1479700
  86.1502740  54.3328590   9.0829690  87.5593240  54.5485320   9.5928160
  83.6230750  68.6447930   7.6477400  83.5489450  69.5483070   7.9549770
  82.7209590  68.3259830   7.6199470  75.5148250  66.8393110   3.6892650
  75.0779240  67.0193910   4.5216800  76.0825930  67.5967730   3.5474370
  89.8362070  63.0662090   6.0746120  89.0221910  63.4959250   6.3371910
  90.2436270  63.6780500   5.4615170  76.3848610  59.7365910   4.5884870
  76.7521650  59.6493310   5.4680890  75.8159430  58.9732460   4.4891730
  75.9364610  56.6475000   8.4943290  75.0420660  56.6141760   8.8337000
  76.4762160  56.8461790   9.2594540  76.4404320  50.9223330   2.8426510
  77.0880510  50.3720710   2.4021670  76.8606160  51.1766480   3.6642320
  76.1936320  51.0779000   5.5851830  75.8451140  51.5342820   6.3510010
  75.8624020  50.1836130   5.6674260  77.8000690  64.2498600   9.7505020
  77.7570320  63.8791510  10.6319480  77.9311700  65.1876170   9.8906840
  81.5006720  65.8058190   5.3514740  81.2598080  66.0732750   4.4645260
  82.4409360  65.9763920   5.4065600  83.7061140  52.2690880   9.1071250
  83.6450030  52.8612710   9.8566660  84.6461520  52.1616840   8.9621510
  86.3435700  51.9260940   8.7463540  86.9576110  52.2440230   8.0844620
  86.8885260  51.4409530   9.3659400  76.8656960  50.6055200   8.8602600
  77.4139950  50.4243250   8.0968710  76.9312270  49.8149310   9.3958910
  77.6388720  67.1960850   6.8702800  77.0449040  67.0645550   7.6092840
  77.6312560  66.3598990   6.4044900  87.0843740  50.4893080   5.0732830
  86.2103580  50.8228190   4.8705760  86.9754490  50.0166260   5.8984700
  87.9915720  52.6963950   6.4574550  87.6629080  51.8815710   6.0776280
  88.9398020  52.6533760   6.3340240  77.2700950  64.5619230   5.8210840
  76.5435010  63.9424520   5.7536790  77.3310100  64.9559840   4.9508920
  80.8746050  66.7764230   2.6060250  81.3911070  66.1651590   2.0808510
  81.5243430  67.2793010   3.0971260  83.6141550  67.6672720   3.4329230
  83.9019360  67.4127020   2.5562240  84.1264770  67.1150080   4.0234800
  84.8318560  51.4062920   4.0125740  84.0490350  51.8808420   4.2922500
  84.5381490  50.5017750   3.9038920  83.6813910  68.5888820  10.7997430
  84.6081220  68.3533090  10.8433390  83.6664340  69.4160820  10.3183460
  80.8677520  51.2533570  10.5639310  80.5861790  51.7567170   9.8000130
  81.2497220  50.4555320  10.1981440  87.4692980  50.6687150  11.1419780
  87.3558430  50.9881760  12.0371300  88.2862720  51.0699660  10.8457060
  86.3751130  39.9136130  56.6028480  86.2945180  38.9990740  56.3320190
  85.9615550  40.4103200  55.8968190  88.5276600  46.0975340  57.2636880
  88.0658130  45.3262580  57.5924050  89.3402150  46.1241410  57.7689330
  76.9326950  36.9636850  53.1455900  76.0443650  37.3052820  53.0435780
  77.2168140  36.7637170  52.2536730  84.7539910  48.3833350  56.8840870
  84.1351350  48.8390850  56.3135310  85.6091690  48.5384810  56.4830570
  79.1088340  35.5468350  54.1794280  79.2155090  36.4472080  54.4863040
  78.1980700  35.4986320  53.8888930  88.7607450  34.6693160  55.6505180
  89.5817070  34.1789730  55.6930660  88.7941530  35.2590820  56.4037020
  85.6203260  43.2672590  54.2772780  85.0020530  43.7322040  53.7135500
  86.1326510  43.9600070  54.6942290  74.9886460  43.9529120  51.6512410
  74.6114440  44.4416220  50.9197310  75.2459530  44.6254400  52.2818940
  82.5975390  32.3545510  57.1097920  82.9050370  31.7992400  56.3933420
  81.6676090  32.4889970  56.9270910  89.4435870  44.7929020  54.4895550
  89.3332200  43.8503350  54.6144970  89.4404120  45.1544660  55.3758310
  84.9856150  40.4194340  53.8458040  84.0585430  40.3531720  54.0746510
  85.1380970  41.3574470  53.7313280  84.9725230  36.6911340  50.8425200
  84.0328900  36.8525300  50.9277660  85.2908490  37.4097020  50.2961190
  89.0153440  41.9814640  54.3493290  88.3965860  41.6434190  53.7019590
  88.9977890  41.3374400  55.0572480  80.5912790  40.9459080  56.6277770
  80.1869790  40.2336330  56.1323670  80.6775910  40.6012320  57.5165810
  87.1918140  41.2201450  51.3566040  87.6311420  40.3823880  51.2103860
  87.9046560  41.8530850  51.4430180  85.3013520  46.1597520  55.3247280
  85.7409430  46.9021850  54.9102670  85.2400410  46.4024090  56.2486240
  77.2917420  39.8404060  54.1284420  77.1715020  40.5666150  53.5165690
  76.9818310  39.0706970  53.6512330  76.1750420  44.7119390  56.3459240
  75.7678500  44.8533980  55.4912840  77.0663430  44.4279550  56.1430450
  87.9683700  49.1466640  52.6810290  87.8084840  48.8569580  53.5792120
  87.8030410  48.3706770  52.1455520  80.4472080  48.9265170  54.4581910
  80.2714560  48.0100710  54.2449710  79.5927820  49.2852460  54.6979710
  87.6709830  46.6554200  51.2408290  86.9774990  46.6531490  50.5810570
  88.4132690  46.2313520  50.8102460  87.2359760  48.2816910  55.3156780
  87.6916710  47.5006290  55.6295400  87.5752280  48.9923730  55.8597960
  79.7581080  33.1839130  57.5108090  79.3149230  33.9648670  57.1792610
  80.3166070  33.5069020  58.2179030  82.8739900  32.8049830  52.3913920
  82.2494080  32.8009700  53.1167230  82.7870020  31.9380790  51.9949890
  79.5495300  38.3072700  55.2389340  79.3236220  38.0909870  56.1435960
  78.7687830  38.7401160  54.8935310  86.7793060  38.3136070  53.8379990
  86.1801950  39.0371870  53.6543610  87.3272670  38.2512850  53.0556440
  85.3857930  36.9499610  55.8683270  85.7787500  37.2671810  55.0551960
  85.7474780  36.0711490  55.9827790  74.6092330  37.4820530  49.3016190
  74.5267000  38.4251290  49.4431180  74.2575390  37.3395440  48.4228540
  82.4090460  36.2159560  58.3686540  82.4126520  35.7749510  57.5191080
  83.3041580  36.5376890  58.4758360  78.2592840  36.0986050  57.3280750
  77.9192890  36.5761280  58.0847800  77.4970160  35.6451170  56.9681850
  82.4710610  37.2171640  51.3593300  82.5923430  37.1758120  52.3079120
  82.0859120  38.0795790  51.2040030  81.4832110  39.5272780  50.7576600
  80.9149010  39.0791030  50.1312510  82.1921110  39.8865560  50.2241750
  75.5738920  35.0205030  56.2445420  75.2885840  34.6560700  57.0824040
  75.5117780  34.2885490  55.6308560  79.0279590  43.5230970  53.0303010
  78.2541850  42.9828590  52.8701730  79.7574220  43.0037580  52.6920770
  85.2477510  33.9134290  52.9658790  84.4342120  33.4147460  52.8904100
  85.0539460  34.7532540  52.5495140  87.9625900  38.2853940  51.2620950
  88.8505520  38.5971170  51.0872290  87.9330990  37.4126190  50.8701530
  79.0716990  43.1911350  56.6681820  79.5895660  42.3879610  56.6138710
  78.6201010  43.1290490  57.5098650  83.9586490  44.4577630  51.9409120
  84.3002190  45.2019860  51.4452440  83.1299200  44.7708750  52.3033950
  86.8413900  43.7793470  57.3054630  87.1937720  43.1821600  56.6456000
  85.9576230  43.4537700  57.4762880  82.9277180  44.5391160  54.7125040
  83.6148310  45.0860370  55.0932630  82.1409600  45.0831890  54.7474650
  75.0669580  40.1563980  50.2042120  75.9364430  40.4388780  50.4878040
  74.5759900  40.9699850  50.0890930  82.2304390  41.5437190  54.3250400
  82.6867170  42.3542440  54.5510590  81.8792600  41.2260330  55.1568890
  78.1316170  31.8874840  54.7972920  78.0030800  31.8792740  55.7457840
  77.3078190  32.2257930  54.4463930  89.6524800  45.3424500  49.9959290
  89.4262380  44.6254940  50.5883930  89.2621000  45.0936940  49.1581040
  75.4340830  49.3691360  50.7703750  75.7938470  49.9680700  50.1161020
  75.2933170  49.9151250  51.5438780  89.2341050  43.2596440  51.6573450
  88.9462750  43.7209130  52.4451330  90.0293220  42.7994210  51.9257670
  81.4509450  46.7522560  51.5877420  81.4419550  47.4852250  50.9721930
  80.5307810  46.5054140  51.6804380  77.0516090  41.9737450  52.3324180
  76.4444040  42.7136350  52.3419480  77.5265440  42.0636810  51.5062380
  89.9910910  35.0945210  52.8168630  89.3624070  35.1990880  52.1026860
  89.4962830  35.3141990  53.6062510  84.4369050  46.8150800  50.2502610
  84.5381030  46.6114790  49.3204590  83.5370790  46.5609080  50.4550390
  81.9594940  37.3731160  54.2326510  81.2511090  37.8417500  54.6740120
  82.2439420  36.7153170  54.8671700  85.9910370  34.0981820  55.6722300
  85.8678150  34.1167950  54.7231810  86.9394930  34.1460760  55.7920700
  83.0787160  49.3337120  54.9450280  83.3328660  49.2958510  54.0229650
  82.1299640  49.2070450  54.9378530  80.1629960  35.6816240  51.6077220
  81.0120490  36.1186390  51.5417410  79.7961230  35.9936500  52.4349280
  89.0839740  40.2529000  56.5208790  88.1429880  40.2679230  56.6956480
  89.3983810  39.4664960  56.9669090  79.0621380  41.9348600  50.0812750
  79.8284650  41.8229960  50.6438180  79.1396070  41.2386570  49.4289520
  77.7568140  39.3673670  50.7645640  77.8371730  38.4201180  50.8763040
  78.6487890  39.6980550  50.8706300  78.5582850  49.5169060  57.8680180
  79.2945330  48.9684520  58.1388750  78.9423770  50.3825070  57.7286170
  75.4428330  45.5842630  53.7421690  74.5168110  45.8263770  53.7327100
  75.9084760  46.4116890  53.6206440  81.6685160  48.6899370  49.6905750
  82.4613770  48.9788200  49.2387540  81.1489510  48.2591540  49.0118230
  82.1862560  43.9102780  49.5548100  82.0813200  43.2955130  50.2809480
  82.0186780  43.3868670  48.7711110  85.4265290  42.9722810  50.1590090
  84.8775390  43.4192110  50.8032830  86.0484550  42.4672060  50.6827760
  81.0940410  41.9313730  52.0555390  81.5156830  41.7653600  52.8986780
  81.2191250  41.1213960  51.5610530  83.6068050  40.9551340  49.3032490
  84.1273710  40.2400360  48.9373640  84.2536450  41.5937210  49.6033000
  79.9899310  38.0046960  49.0013550  79.7888370  37.1414320  49.3626890
  79.8191360  37.9180320  48.0635150  87.4687620  32.8155190  51.5300430
  87.7489910  31.9723090  51.8859850  86.6953350  33.0478300  52.0439180
  78.7882110  35.1047580  48.9891430  79.0908010  35.1115010  48.0810580
  79.5276700  34.7545440  49.4859090  82.0067040  34.0482200  49.9747630
  81.6589040  33.3706190  49.3950080  82.2079810  33.5871710  50.7891020
  84.1716080  49.0362950  51.5934230  85.0666870  49.3747920  51.6152990
  84.2033710  48.3142360  50.9658510  77.8112240  44.4090000  49.8221230
  78.2487110  44.9519670  50.4778810  78.2959970  43.5836950  49.8317570
  75.0258040  47.1979030  57.2741490  75.3561050  46.3300090  57.0420130
  75.4549040  47.4037550  58.1046450  79.6219960  45.5288040  54.9343460
  79.3215500  45.4053010  55.8347370  79.5157450  44.6696630  54.5259190
  75.3472680  40.5769850  56.3712000  74.6921520  40.3081490  55.7271700
  76.1850630  40.4674330  55.9213980  88.2963120  35.3711140  50.5930490
  88.7148000  35.1842120  49.7527150  87.9899180  34.5190190  50.9033420
  74.5610760  37.7868780  52.3137330  73.6574840  38.0498980  52.1388990
  75.0451380  38.0579950  51.5337290  77.1037970  36.8434320  50.2231710
  77.8129670  36.4217540  49.7378990  76.3877910  36.9109550  49.5915060
  76.7512130  32.8973650  49.2634360  77.4740260  33.4382590  49.5815580
  77.0236650  32.6237070  48.3875900  89.3839630  33.3342530  58.3805300
  89.8247720  33.2787630  57.5326900  89.1147220  34.2500540  58.4515480
  75.5530950  49.1050130  55.3538070  75.3852990  48.4720810  56.0519960
  74.6865460  49.3109530  55.0032260  76.1758970  32.9366910  52.8569930
  76.9338330  33.0495790  52.2833960  75.7136140  33.7736110  52.8113360
  82.7172780  35.0506180  55.8472240  81.9047290  34.6763070  55.5068120
  83.2214420  34.2951260  56.1493430  87.2197760  31.7148630  57.0855310
  87.8227130  32.2868840  57.5603830  86.4790750  32.2788070  56.8629210
  77.1593650  47.7983360  52.7988210  76.6341270  48.1791390  52.0950170
  77.0838230  48.4234130  53.5197920  78.5484120  33.4630960  51.3971900
  79.0776880  32.6760760  51.2679850  79.1812440  34.1422150  51.6307430
  80.7421960  33.2006100  54.4517290  80.1124700  32.4993410  54.6187420
  80.2027100  33.9610230  54.2350450  79.7586620  49.7465740  51.6737460
  80.4905440  49.4625020  51.1261350  80.0180290  49.5079020  52.5636840
  78.9201410  45.8630470  51.6783790  78.2910290  46.3315570  52.2269620
  79.0349240  45.0179690  52.1129980  86.3751130  39.9136130  37.8284990
  86.2945180  38.9990740  37.5576700  85.9615550  40.4103200  37.1224700
  84.5069170  41.6915150  39.7094260  83.7311270  41.2115590  39.9992830
  85.1582100  41.0120800  39.5350420  78.5235000  42.0034960  40.5870020
  77.6919880  41.7483670  40.9866530  79.1315980  42.0745730  41.3227940
  88.5276600  46.0975340  38.4893390  88.0658130  45.3262580  38.8180560
  89.3402150  46.1241410  38.9945840  78.5036260  46.0375050  40.7828040
  78.8064300  45.1472790  40.6038260  79.2479850  46.5945270  40.5550290
  76.9326950  36.9636850  34.3712410  76.0443650  37.3052820  34.2692290
  77.2168140  36.7637170  33.4793240  74.8959960  39.5642500  40.2552110
  75.4676070  38.7964700  40.2555750  74.8961500  39.8631260  39.3458720
  84.7539910  48.3833350  38.1097380  84.1351350  48.8390850  37.5391820
  85.6091690  48.5384810  37.7087080  83.9478160  44.3672340  39.7164420
  83.8786440  43.4262280  39.5553550  84.7098020  44.4573750  40.2886990
  76.1384830  34.9726860  42.0421040  75.9587670  34.0752610  42.3223800
  75.7364910  35.5198730  42.7167990  84.9783330  37.1742720  39.9433350
  85.3548150  36.3014600  39.8307020  84.8802840  37.5101420  39.0523790
  79.1088340  35.5468350  35.4050790  79.2155090  36.4472080  35.7119550
  78.1980700  35.4986320  35.1145440  88.7607450  34.6693160  36.8761690
  89.5817070  34.1789730  36.9187170  88.7941530  35.2590820  37.6293530
  76.7571500  37.4687360  40.6503380  77.4381610  37.7325730  41.2690780
  76.4419550  36.6288230  40.9841390  80.9496070  38.5154720  39.7375970
  81.4574290  39.0135690  40.3780990  81.4809310  37.7389920  39.5615330
  79.2332170  33.1553280  44.0039390  79.2350610  33.6725670  43.1985290
  78.4036480  32.6783460  43.9809320  85.6203260  43.2672590  35.5029290
  85.0020530  43.7322040  34.9392010  86.1326510  43.9600070  35.9198800
  80.4835020  42.7948460  42.1812890  80.1504400  43.4217380  42.8233960
  80.6601700  43.3210340  41.4014560  88.9968930  36.6093540  39.6489230
  88.2924500  36.8978430  40.2292340  89.3581090  37.4193650  39.2888790
  78.9147500  34.8663240  42.0109840  79.2564310  35.7105290  41.7163710
  77.9763310  35.0146980  42.1275180  79.6954120  44.7629260  43.9962070
  80.3128120  45.4380340  43.7146520  78.8347240  45.1717240  43.9049570
  74.9886460  43.9529120  32.8768920  74.6114440  44.4416220  32.1453820
  75.2459530  44.6254400  33.5075450  82.5975390  32.3545510  38.3354430
  82.9050370  31.7992400  37.6189930  81.6676090  32.4889970  38.1527420
  88.1490450  48.0712800  40.6261890  88.1617610  47.6675090  39.7584150
  87.5965670  48.8460090  40.5223320  89.4435870  44.7929020  35.7152060
  89.3332200  43.8503350  35.8401480  89.4404120  45.1544660  36.6014820
  87.5475890  42.9742640  41.9544500  87.9644680  42.7602750  41.1197960
  88.2715710  43.2315430  42.5253120  84.9856150  40.4194340  35.0714550
  84.0585430  40.3531720  35.3003020  85.1380970  41.3574470  34.9569790
  84.9725230  36.6911340  32.0681710  84.0328900  36.8525300  32.1534170
  85.2908490  37.4097020  31.5217700  89.0153440  41.9814640  35.5749800
  88.3965860  41.6434190  34.9276100  88.9977890  41.3374400  36.2828990
  88.4580000  38.1599180  42.9915610  88.0451180  38.9852890  43.2455600
  87.7255950  37.5744220  42.7991970  80.5912790  40.9459080  37.8534280
  80.1869790  40.2336330  37.3580180  80.6775910  40.6012320  38.7422320
  81.0594490  44.6326640  40.0173490  80.7622780  44.0272110  39.3381270
  82.0094310  44.6703950  39.9062850  79.3041410  37.7202290  41.6333320
  79.8556000  37.8297630  40.8586570  79.8184920  38.0939890  42.3488550
  89.1480100  48.2058510  43.6796590  88.6710660  49.0130700  43.4869200
  88.4641890  47.5536840  43.8322800  80.1512920  44.3708330  46.6681290
  79.2541450  44.5948300  46.9154690  80.1765790  44.4943270  45.7192690
  87.1918140  41.2201450  32.5822550  87.6311420  40.3823880  32.4360370
  87.9046560  41.8530850  32.6686690  78.9784140  41.2421650  45.2438660
  78.8391910  42.1144450  45.6126060  78.0965500  40.8994460  45.0986600
  85.3013520  46.1597520  36.5503790  85.7409430  46.9021850  36.1359180
  85.2400410  46.4024090  37.4742750  80.7764490  47.1843350  47.4523810
  80.7479920  47.5886300  46.5852240  80.6129460  46.2553710  47.2895410
  77.2917420  39.8404060  35.3540930  77.1715020  40.5666150  34.7422200
  76.9818310  39.0706970  34.8768840  74.9302790  43.0119200  41.1609570
  75.0083210  43.1467970  40.2165290  75.5444470  42.3035090  41.3537690
  76.1750420  44.7119390  37.5715750  75.7678500  44.8533980  36.7169350
  77.0663430  44.4279550  37.3686960  85.9929300  48.8611300  44.4782800
  86.5073970  48.7719310  45.2805230  85.1498380  49.2071000  44.7710710
  87.9683700  49.1466640  33.9066800  87.8084840  48.8569580  34.8048630
  87.8030410  48.3706770  33.3712030  80.4472080  48.9265170  35.6838420
  80.2714560  48.0100710  35.4706220  79.5927820  49.2852460  35.9236220
  87.6709830  46.6554200  32.4664800  86.9774990  46.6531490  31.8067080
  88.4132690  46.2313520  32.0358970  87.2359760  48.2816910  36.5413290
  87.6916710  47.5006290  36.8551910  87.5752280  48.9923730  37.0854470
  74.9862310  44.0533370  43.7004030  75.1493350  43.5838730  42.8823400
  75.4514760  43.5456930  44.3652870  79.7581080  33.1839130  38.7364600
  79.3149230  33.9648670  38.4049120  80.3166070  33.5069020  39.4435540
  84.0450890  36.0507650  44.3399920  83.5830260  36.2590670  45.1519860
  83.6429000  35.2367000  44.0370590  89.0455400  37.2716600  45.4696580
  88.1948990  36.9722350  45.7905650  88.8857190  37.5158610  44.5580400
  86.1405110  38.7718350  47.5695370  86.4658520  37.9382100  47.2297600
  86.9285440  39.2946870  47.7173700  82.8739900  32.8049830  33.6170430
  82.2494080  32.8009700  34.3423740  82.7870020  31.9380790  33.2206400
  81.7956980  33.7286460  40.5954200  82.0929310  34.6349290  40.5146220
  82.3442540  33.2405240  39.9813770  79.5495300  38.3072700  36.4645850
  79.3236220  38.0909870  37.3692470  78.7687830  38.7401160  36.1191820
  86.7793060  38.3136070  35.0636500  86.1801950  39.0371870  34.8800120
  87.3272670  38.2512850  34.2812950  81.9894510  39.2058280  47.1306120
  81.8938110  38.2653010  46.9806520  82.8326490  39.4273350  46.7354190
  85.3857930  36.9499610  37.0939780  85.7787500  37.2671810  36.2808470
  85.7474780  36.0711490  37.2084300  77.1205050  35.6171950  45.2839900
  76.7268440  36.4647160  45.4912680  76.4323450  34.9798320  45.4748540
  83.6950100  35.7006920  48.3536640  83.0048420  35.5079120  48.9882730
  84.4382400  35.9841560  48.8860940  74.4222100  33.5400410  39.3169980
  74.1335150  34.1103270  40.0294960  75.1667860  33.0604860  39.6801210
  74.6092330  37.4820530  30.5272700  74.5267000  38.4251290  30.6687690
  74.2575390  37.3395440  29.6485050  85.9713070  39.5405360  41.1890560
  85.2394190  40.0492170  41.5380660  85.5737410  38.7235340  40.8879340
  82.4090460  36.2159560  39.5943050  82.4126520  35.7749510  38.7447590
  83.3041580  36.5376890  39.7014870  78.2592840  36.0986050  38.5537260
  77.9192890  36.5761280  39.3104310  77.4970160  35.6451170  38.1938360
  82.4710610  37.2171640  32.5849810  82.5923430  37.1758120  33.5335630
  82.0859120  38.0795790  32.4296540  86.4338980  34.9939040  40.6013500
  86.4511720  35.4447690  41.4455350  86.1854560  34.0944680  40.8146940
  81.4832110  39.5272780  31.9833110  80.9149010  39.0791030  31.3569020
  82.1921110  39.8865560  31.4498260  89.8609730  32.4071220  46.4399880
  90.1855500  31.6760880  46.9657860  89.8966240  32.0884860  45.5380870
  76.5601290  43.4284800  45.8599840  76.1756080  42.7878470  46.4582800
  76.8713480  44.1320920  46.4294570  82.7098430  40.2761340  41.3408460
  83.0768560  39.8019910  42.0869800  82.5203490  41.1502910  41.6816800
  75.5738920  35.0205030  37.4701930  75.2885840  34.6560700  38.3080550
  75.5117780  34.2885490  36.8565070  80.4997800  39.3169980  43.6592670
  80.1954870  40.1961960  43.8843030  81.4544260  39.3769770  43.6950110
  79.0279590  43.5230970  34.2559520  78.2541850  42.9828590  34.0958240
  79.7574220  43.0037580  33.9177280  85.2477510  33.9134290  34.1915300
  84.4342120  33.4147460  34.1160610  85.0539460  34.7532540  33.7751650
  85.1686370  42.5905390  45.9354910  85.1023680  41.6701060  45.6812500
  84.5391510  42.6880830  46.6499550  87.9625900  38.2853940  32.4877460
  88.8505520  38.5971170  32.3128800  87.9330990  37.4126190  32.0958040
  79.0716990  43.1911350  37.8938330  79.5895660  42.3879610  37.8395220
  78.6201010  43.1290490  38.7355160  83.9586490  44.4577630  33.1665630
  84.3002190  45.2019860  32.6708950  83.1299200  44.7708750  33.5290460
  76.5561530  40.1572720  44.8064030  76.1976470  40.8226570  45.3937370
  76.2616090  39.3256270  45.1776650  79.7574650  40.6156960  47.6903580
  79.4574790  40.7614140  46.7931400  80.5285890  40.0562250  47.5976970
  85.1003100  45.4125960  45.6858710  85.1147640  44.4806920  45.4677620
  84.3928200  45.4985720  46.3248480  86.8413900  43.7793470  38.5311140
  87.1937720  43.1821600  37.8712510  85.9576230  43.4537700  38.7019390
  82.9277180  44.5391160  35.9381550  83.6148310  45.0860370  36.3189140
  82.1409600  45.0831890  35.9731160  75.0669580  40.1563980  31.4298630
  75.9364430  40.4388780  31.7134550  74.5759900  40.9699850  31.3147440
  82.2304390  41.5437190  35.5506910  82.6867170  42.3542440  35.7767100
  81.8792600  41.2260330  36.3825400  84.5337000  47.0543530  42.7799210
  85.1779220  47.2602910  43.4572630  84.8966440  46.2931930  42.3270060
  78.1316170  31.8874840  36.0229430  78.0030800  31.8792740  36.9714350
  77.3078190  32.2257930  35.6720440  85.8069080  45.0575880  41.4976660
  86.4491310  44.3569040  41.6108830  86.3318430  45.8374320  41.3173550
  89.6524800  45.3424500  31.2215800  89.4262380  44.6254940  31.8140440
  89.2621000  45.0936940  30.3837550  87.5806700  45.8570780  44.7012720
  87.9162940  46.4437470  45.3790640  86.6607040  45.7263490  44.9310510
  75.4340830  49.3691360  31.9960260  75.7938470  49.9680700  31.3417530
  75.2933170  49.9151250  32.7695290  75.1310100  33.6465960  45.4836130
  74.4168620  33.8462880  46.0888740  75.5505140  32.8705530  45.8550930
  89.2341050  43.2596440  32.8829960  88.9462750  43.7209130  33.6707840
  90.0293220  42.7994210  33.1514180  75.4182690  47.6346220  46.4702660
  75.5273810  46.6940960  46.3298050  74.7663250  47.9000970  45.8216390
  83.4095280  45.9062110  47.8700780  83.0892150  45.1871350  48.4146470
  82.7353640  46.5817180  47.9436840  81.4509450  46.7522560  32.8133930
  81.4419550  47.4852250  32.1978440  80.5307810  46.5054140  32.9060890
  77.0516090  41.9737450  33.5580690  76.4444040  42.7136350  33.5675990
  77.5265440  42.0636810  32.7318890  86.6248880  36.1388270  43.2337580
  86.9929700  35.3183480  43.5617150  85.7647080  36.1990160  43.6493230
  89.9910910  35.0945210  34.0425140  89.3624070  35.1990880  33.3283370
  89.4962830  35.3141990  34.8319020  84.4369050  46.8150800  31.4759120
  84.5381030  46.6114790  30.5461100  83.5370790  46.5609080  31.6806900
  81.9594940  37.3731160  35.4583020  81.2511090  37.8417500  35.8996630
  82.2439420  36.7153170  36.0928210  83.5850870  38.7927860  43.4575550
  84.0836120  39.2673680  44.1227400  83.7273820  37.8691380  43.6645580
  85.9910370  34.0981820  36.8978810  85.8678150  34.1167950  35.9488320
  86.9394930  34.1460760  37.0177210  83.0787160  49.3337120  36.1706790
  83.3328660  49.2958510  35.2486160  82.1299640  49.2070450  36.1635040
  80.1629960  35.6816240  32.8333730  81.0120490  36.1186390  32.7673920
  79.7961230  35.9936500  33.6605790  89.0839740  40.2529000  37.7465300
  88.1429880  40.2679230  37.9212990  89.3983810  39.4664960  38.1925600
  79.0621380  41.9348600  31.3069260  79.8284650  41.8229960  31.8694690
  79.1396070  41.2386570  30.6546030  77.7568140  39.3673670  31.9902150
  77.8371730  38.4201180  32.1019550  78.6487890  39.6980550  32.0962810
  78.5582850  49.5169060  39.0936690  79.2945330  48.9684520  39.3645260
  78.9423770  50.3825070  38.9542680  75.4428330  45.5842630  34.9678200
  74.5168110  45.8263770  34.9583610  75.9084760  46.4116890  34.8462950
  77.5641130  48.7015130  48.2822270  78.3653860  49.0227180  48.6957670
  77.0492950  48.3410710  49.0042180  81.6685160  48.6899370  30.9162260
  82.4613770  48.9788200  30.4644050  81.1489510  48.2591540  30.2374740
  86.4005760  44.8095000  48.2297680  85.7943920  44.8326600  47.4893430
  86.0959870  44.0778040  48.7664930  87.8306130  48.5375290  46.8407090
  88.7827880  48.4533310  46.7907330  87.6834350  49.2017000  47.5140880
  75.2838940  41.1888590  47.2258320  75.7877960  40.6095870  47.7974550
  74.5446360  41.4728820  47.7634690  82.1862560  43.9102780  30.7804610
  82.0813200  43.2955130  31.5065990  82.0186780  43.3868670  29.9967620
  82.3376880  42.5959580  46.7593840  81.5722550  43.1644580  46.6748510
  82.5192840  42.3035790  45.8662070  85.4265290  42.9722810  31.3846600
  84.8775390  43.4192110  32.0289340  86.0484550  42.4672060  31.9084270
  89.4800230  44.3264910  47.3168860  90.2209700  44.6640670  46.8136320
  88.7172910  44.4956970  46.7638630  77.3162020  39.3318180  48.1208390
  77.3567360  39.0332050  49.0293620  78.1707520  39.7325790  47.9615910
  81.0940410  41.9313730  33.2811900  81.5156830  41.7653600  34.1243290
  81.2191250  41.1213960  32.7867040  79.2567830  37.9110280  46.0882880
  78.7264290  37.4201230  45.4606220  79.9255900  38.3394480  45.5540810
  83.6068050  40.9551340  30.5289000  84.1273710  40.2400360  30.1630150
  84.2536450  41.5937210  30.8289510  88.1545890  42.3779740  45.8524070
  88.5686910  42.5324820  46.7014490  87.2196890  42.5034960  46.0149850
  88.6268060  39.7175900  47.8563220  89.2088830  38.9628220  47.7683700
  88.8029830  40.2483340  47.0794700  79.7440130  34.8772650  46.1680170
  79.6497000  34.2593400  45.4431040  79.1637520  35.6038940  45.9410080
  82.5101570  33.4345890  43.2007560  82.0618870  33.4570150  42.3553110
  81.8766770  33.0364910  43.7977860  82.9161120  42.3300220  43.8220000
  83.3349230  43.1732950  43.6496240  81.9969750  42.4672260  43.5926780
  85.2525020  40.0616400  45.2057840  85.3721230  39.4657540  45.9452680
  86.1119020  40.0986090  44.7859140  87.5912920  40.6153590  43.7820350
  87.0648140  41.1396210  43.1785490  87.9344260  41.2480980  44.4130080
  79.9899310  38.0046960  30.2270060  79.7888370  37.1414320  30.5883400
  79.8191360  37.9180320  29.2891660  80.7668540  48.6353230  44.9377730
  80.2289630  49.3599290  44.6186430  81.0202500  48.1583570  44.1475070
  82.0193790  36.6037750  46.4633660  82.6093480  36.2953600  47.1511480
  81.2014030  36.1317500  46.6193560  86.8387220  36.2203560  46.6966680
  86.1502740  35.5585100  46.6316670  87.5593240  35.7741830  47.1415140
  87.4687620  32.8155190  32.7556940  87.7489910  31.9723090  33.1116360
  86.6953350  33.0478300  33.2695690  78.7882110  35.1047580  30.2147940
  79.0908010  35.1115010  29.3067090  79.5276700  34.7545440  30.7115600
  83.6230750  49.8704440  45.1964380  83.5489450  50.7739580  45.5036750
  82.7209590  49.5516340  45.1686450  82.0067040  34.0482200  31.2004140
  81.6589040  33.3706190  30.6206590  82.2079810  33.5871710  32.0147530
  84.1716080  49.0362950  32.8190740  85.0666870  49.3747920  32.8409500
  84.2033710  48.3142360  32.1915020  77.8112240  44.4090000  31.0477740
  78.2487110  44.9519670  31.7035320  78.2959970  43.5836950  31.0574080
  75.0258040  47.1979030  38.4998000  75.3561050  46.3300090  38.2676640
  75.4549040  47.4037550  39.3302960  79.6219960  45.5288040  36.1599970
  79.3215500  45.4053010  37.0603880  79.5157450  44.6696630  35.7515700
  75.5148250  48.0649620  41.2379630  75.0779240  48.2450420  42.0703780
  76.0825930  48.8224240  41.0961350  75.3472680  40.5769850  37.5968510
  74.6921520  40.3081490  36.9528210  76.1850630  40.4674330  37.1470490
  89.8362070  44.2918600  43.6233100  89.0221910  44.7215760  43.8858890
  90.2436270  44.9037010  43.0102150  88.2963120  35.3711140  31.8187000
  88.7148000  35.1842120  30.9783660  87.9899180  34.5190190  32.1289930
  76.3848610  40.9622420  42.1371850  76.7521650  40.8749820  43.0167870
  75.8159430  40.1988970  42.0378710  75.9364610  37.8731510  46.0430270
  75.0420660  37.8398270  46.3823980  76.4762160  38.0718300  46.8081520
  74.5610760  37.7868780  33.5393840  73.6574840  38.0498980  33.3645500
  75.0451380  38.0579950  32.7593800  77.1037970  36.8434320  31.4488220
  77.8129670  36.4217540  30.9635500  76.3877910  36.9109550  30.8171570
  76.7512130  32.8973650  30.4890870  77.4740260  33.4382590  30.8072090
  77.0236650  32.6237070  29.6132410  76.4404320  32.1479840  40.3913490
  77.0880510  31.5977220  39.9508650  76.8606160  32.4022990  41.2129300
  76.1936320  32.3035510  43.1338810  75.8451140  32.7599330  43.8996990
  75.8624020  31.4092640  43.2161240  77.8000690  45.4755110  47.2992000
  77.7570320  45.1048020  48.1806460  77.9311700  46.4132680  47.4393820
  81.5006720  47.0314700  42.9001720  81.2598080  47.2989260  42.0132240
  82.4409360  47.2020430  42.9552580  83.7061140  33.4947390  46.6558230
  83.6450030  34.0869220  47.4053640  84.6461520  33.3873350  46.5108490
  86.3435700  33.1517450  46.2950520  86.9576110  33.4696740  45.6331600
  86.8885260  32.6666040  46.9146380  76.8656960  31.8311710  46.4089580
  77.4139950  31.6499760  45.6455690  76.9312270  31.0405820  46.9445890
  77.6388720  48.4217360  44.4189780  77.0449040  48.2902060  45.1579820
  77.6312560  47.5855500  43.9531880  87.0843740  31.7149590  42.6219810
  86.2103580  32.0484700  42.4192740  86.9754490  31.2422770  43.4471680
  87.9915720  33.9220460  44.0061530  87.6629080  33.1072220  43.6263260
  88.9398020  33.8790270  43.8827220  77.2700950  45.7875740  43.3697820
  76.5435010  45.1681030  43.3023770  77.3310100  46.1816350  42.4995900
  80.8746050  48.0020740  40.1547230  81.3911070  47.3908100  39.6295490
  81.5243430  48.5049520  40.6458240  83.6141550  48.8929230  40.9816210
  83.9019360  48.6383530  40.1049220  84.1264770  48.3406590  41.5721780
  84.8318560  32.6319430  41.5612720  84.0490350  33.1064930  41.8409480
  84.5381490  31.7274260  41.4525900  89.3839630  33.3342530  39.6061810
  89.8247720  33.2787630  38.7583410  89.1147220  34.2500540  39.6771990
  75.5530950  49.1050130  36.5794580  75.3852990  48.4720810  37.2776470
  74.6865460  49.3109530  36.2288770  76.1758970  32.9366910  34.0826440
  76.9338330  33.0495790  33.5090470  75.7136140  33.7736110  34.0369870
  82.7172780  35.0506180  37.0728750  81.9047290  34.6763070  36.7324630
  83.2214420  34.2951260  37.3749940  87.2197760  31.7148630  38.3111820
  87.8227130  32.2868840  38.7860340  86.4790750  32.2788070  38.0885720
  77.1593650  47.7983360  34.0244720  76.6341270  48.1791390  33.3206680
  77.0838230  48.4234130  34.7454430  78.5484120  33.4630960  32.6228410
  79.0776880  32.6760760  32.4936360  79.1812440  34.1422150  32.8563940
  80.7421960  33.2006100  35.6773800  80.1124700  32.4993410  35.8443930
  80.2027100  33.9610230  35.4606960  83.6813910  49.8145330  48.3484410
  84.6081220  49.5789600  48.3920370  83.6664340  50.6417330  47.8670440
  80.8677520  32.4790080  48.1126290  80.5861790  32.9823680  47.3487110
  81.2497220  31.6811830  47.7468420  79.7586620  49.7465740  32.8993970
  80.4905440  49.4625020  32.3517860  80.0180290  49.5079020  33.7893350
  78.9201410  45.8630470  32.9040300  78.2910290  46.3315570  33.4526130
  79.0349240  45.0179690  33.3386490  87.4692980  31.8943660  48.6906760
  87.3558430  32.2138270  49.5858280  88.2862720  32.2956170  48.3944040
  86.3751130  39.9136130  19.0541500  86.2945180  38.9990740  18.7833210
  85.9615550  40.4103200  18.3481210  84.5069170  41.6915150  20.9350770
  83.7311270  41.2115590  21.2249340  85.1582100  41.0120800  20.7606930
  78.5235000  42.0034960  21.8126530  77.6919880  41.7483670  22.2123040
  79.1315980  42.0745730  22.5484450  88.5276600  46.0975340  19.7149900
  88.0658130  45.3262580  20.0437070  89.3402150  46.1241410  20.2202350
  78.5036260  46.0375050  22.0084550  78.8064300  45.1472790  21.8294770
  79.2479850  46.5945270  21.7806800  76.9326950  36.9636850  15.5968920
  76.0443650  37.3052820  15.4948800  77.2168140  36.7637170  14.7049750
  74.8959960  39.5642500  21.4808620  75.4676070  38.7964700  21.4812260
  74.8961500  39.8631260  20.5715230  84.7539910  48.3833350  19.3353890
  84.1351350  48.8390850  18.7648330  85.6091690  48.5384810  18.9343590
  83.9478160  44.3672340  20.9420930  83.8786440  43.4262280  20.7810060
  84.7098020  44.4573750  21.5143500  76.1384830  34.9726860  23.2677550
  75.9587670  34.0752610  23.5480310  75.7364910  35.5198730  23.9424500
  84.9783330  37.1742720  21.1689860  85.3548150  36.3014600  21.0563530
  84.8802840  37.5101420  20.2780300  79.1088340  35.5468350  16.6307300
  79.2155090  36.4472080  16.9376060  78.1980700  35.4986320  16.3401950
  88.7607450  34.6693160  18.1018200  89.5817070  34.1789730  18.1443680
  88.7941530  35.2590820  18.8550040  76.7571500  37.4687360  21.8759890
  77.4381610  37.7325730  22.4947290  76.4419550  36.6288230  22.2097900
  80.9496070  38.5154720  20.9632480  81.4574290  39.0135690  21.6037500
  81.4809310  37.7389920  20.7871840  79.2332170  33.1553280  25.2295900
  79.2350610  33.6725670  24.4241800  78.4036480  32.6783460  25.2065830
  85.6203260  43.2672590  16.7285800  85.0020530  43.7322040  16.1648520
  86.1326510  43.9600070  17.1455310  80.4835020  42.7948460  23.4069400
  80.1504400  43.4217380  24.0490470  80.6601700  43.3210340  22.6271070
  88.9968930  36.6093540  20.8745740  88.2924500  36.8978430  21.4548850
  89.3581090  37.4193650  20.5145300  78.9147500  34.8663240  23.2366350
  79.2564310  35.7105290  22.9420220  77.9763310  35.0146980  23.3531690
  79.6954120  44.7629260  25.2218580  80.3128120  45.4380340  24.9403030
  78.8347240  45.1717240  25.1306080  74.9886460  43.9529120  14.1025430
  74.6114440  44.4416220  13.3710330  75.2459530  44.6254400  14.7331960
  82.5975390  32.3545510  19.5610940  82.9050370  31.7992400  18.8446440
  81.6676090  32.4889970  19.3783930  88.1490450  48.0712800  21.8518400
  88.1617610  47.6675090  20.9840660  87.5965670  48.8460090  21.7479830
  89.4435870  44.7929020  16.9408570  89.3332200  43.8503350  17.0657990
  89.4404120  45.1544660  17.8271330  87.5475890  42.9742640  23.1801010
  87.9644680  42.7602750  22.3454470  88.2715710  43.2315430  23.7509630
  84.9856150  40.4194340  16.2971060  84.0585430  40.3531720  16.5259530
  85.1380970  41.3574470  16.1826300  84.9725230  36.6911340  13.2938220
  84.0328900  36.8525300  13.3790680  85.2908490  37.4097020  12.7474210
  89.0153440  41.9814640  16.8006310  88.3965860  41.6434190  16.1532610
  88.9977890  41.3374400  17.5085500  88.4580000  38.1599180  24.2172120
  88.0451180  38.9852890  24.4712110  87.7255950  37.5744220  24.0248480
  80.5912790  40.9459080  19.0790790  80.1869790  40.2336330  18.5836690
  80.6775910  40.6012320  19.9678830  81.0594490  44.6326640  21.2430000
  80.7622780  44.0272110  20.5637780  82.0094310  44.6703950  21.1319360
  79.3041410  37.7202290  22.8589830  79.8556000  37.8297630  22.0843080
  79.8184920  38.0939890  23.5745060  89.1480100  48.2058510  24.9053100
  88.6710660  49.0130700  24.7125710  88.4641890  47.5536840  25.0579310
  80.1512920  44.3708330  27.8937800  79.2541450  44.5948300  28.1411200
  80.1765790  44.4943270  26.9449200  87.1918140  41.2201450  13.8079060
  87.6311420  40.3823880  13.6616880  87.9046560  41.8530850  13.8943200
  78.9784140  41.2421650  26.4695170  78.8391910  42.1144450  26.8382570
  78.0965500  40.8994460  26.3243110  85.3013520  46.1597520  17.7760300
  85.7409430  46.9021850  17.3615690  85.2400410  46.4024090  18.6999260
  80.7764490  47.1843350  28.6780320  80.7479920  47.5886300  27.8108750
  80.6129460  46.2553710  28.5151920  77.2917420  39.8404060  16.5797440
  77.1715020  40.5666150  15.9678710  76.9818310  39.0706970  16.1025350
  74.9302790  43.0119200  22.3866080  75.0083210  43.1467970  21.4421800
  75.5444470  42.3035090  22.5794200  76.1750420  44.7119390  18.7972260
  75.7678500  44.8533980  17.9425860  77.0663430  44.4279550  18.5943470
  85.9929300  48.8611300  25.7039310  86.5073970  48.7719310  26.5061740
  85.1498380  49.2071000  25.9967220  87.9683700  49.1466640  15.1323310
  87.8084840  48.8569580  16.0305140  87.8030410  48.3706770  14.5968540
  80.4472080  48.9265170  16.9094930  80.2714560  48.0100710  16.6962730
  79.5927820  49.2852460  17.1492730  87.6709830  46.6554200  13.6921310
  86.9774990  46.6531490  13.0323590  88.4132690  46.2313520  13.2615480
  87.2359760  48.2816910  17.7669800  87.6916710  47.5006290  18.0808420
  87.5752280  48.9923730  18.3110980  74.9862310  44.0533370  24.9260540
  75.1493350  43.5838730  24.1079910  75.4514760  43.5456930  25.5909380
  79.7581080  33.1839130  19.9621110  79.3149230  33.9648670  19.6305630
  80.3166070  33.5069020  20.6692050  84.0450890  36.0507650  25.5656430
  83.5830260  36.2590670  26.3776370  83.6429000  35.2367000  25.2627100
  89.0455400  37.2716600  26.6953090  88.1948990  36.9722350  27.0162160
  88.8857190  37.5158610  25.7836910  86.1405110  38.7718350  28.7951880
  86.4658520  37.9382100  28.4554110  86.9285440  39.2946870  28.9430210
  82.8739900  32.8049830  14.8426940  82.2494080  32.8009700  15.5680250
  82.7870020  31.9380790  14.4462910  81.7956980  33.7286460  21.8210710
  82.0929310  34.6349290  21.7402730  82.3442540  33.2405240  21.2070280
  79.5495300  38.3072700  17.6902360  79.3236220  38.0909870  18.5948980
  78.7687830  38.7401160  17.3448330  86.7793060  38.3136070  16.2893010
  86.1801950  39.0371870  16.1056630  87.3272670  38.2512850  15.5069460
  81.9894510  39.2058280  28.3562630  81.8938110  38.2653010  28.2063030
  82.8326490  39.4273350  27.9610700  85.3857930  36.9499610  18.3196290
  85.7787500  37.2671810  17.5064980  85.7474780  36.0711490  18.4340810
  77.1205050  35.6171950  26.5096410  76.7268440  36.4647160  26.7169190
  76.4323450  34.9798320  26.7005050  83.6950100  35.7006920  29.5793150
  83.0048420  35.5079120  30.2139240  84.4382400  35.9841560  30.1117450
  74.4222100  33.5400410  20.5426490  74.1335150  34.1103270  21.2551470
  75.1667860  33.0604860  20.9057720  74.6092330  37.4820530  11.7529210
  74.5267000  38.4251290  11.8944200  74.2575390  37.3395440  10.8741560
  85.9713070  39.5405360  22.4147070  85.2394190  40.0492170  22.7637170
  85.5737410  38.7235340  22.1135850  82.4090460  36.2159560  20.8199560
  82.4126520  35.7749510  19.9704100  83.3041580  36.5376890  20.9271380
  78.2592840  36.0986050  19.7793770  77.9192890  36.5761280  20.5360820
  77.4970160  35.6451170  19.4194870  82.4710610  37.2171640  13.8106320
  82.5923430  37.1758120  14.7592140  82.0859120  38.0795790  13.6553050
  86.4338980  34.9939040  21.8270010  86.4511720  35.4447690  22.6711860
  86.1854560  34.0944680  22.0403450  81.4832110  39.5272780  13.2089620
  80.9149010  39.0791030  12.5825530  82.1921110  39.8865560  12.6754770
  89.8609730  32.4071220  27.6656390  90.1855500  31.6760880  28.1914370
  89.8966240  32.0884860  26.7637380  76.5601290  43.4284800  27.0856350
  76.1756080  42.7878470  27.6839310  76.8713480  44.1320920  27.6551080
  82.7098430  40.2761340  22.5664970  83.0768560  39.8019910  23.3126310
  82.5203490  41.1502910  22.9073310  75.5738920  35.0205030  18.6958440
  75.2885840  34.6560700  19.5337060  75.5117780  34.2885490  18.0821580
  80.4997800  39.3169980  24.8849180  80.1954870  40.1961960  25.1099540
  81.4544260  39.3769770  24.9206620  79.0279590  43.5230970  15.4816030
  78.2541850  42.9828590  15.3214750  79.7574220  43.0037580  15.1433790
  85.2477510  33.9134290  15.4171810  84.4342120  33.4147460  15.3417120
  85.0539460  34.7532540  15.0008160  85.1686370  42.5905390  27.1611420
  85.1023680  41.6701060  26.9069010  84.5391510  42.6880830  27.8756060
  87.9625900  38.2853940  13.7133970  88.8505520  38.5971170  13.5385310
  87.9330990  37.4126190  13.3214550  79.0716990  43.1911350  19.1194840
  79.5895660  42.3879610  19.0651730  78.6201010  43.1290490  19.9611670
  83.9586490  44.4577630  14.3922140  84.3002190  45.2019860  13.8965460
  83.1299200  44.7708750  14.7546970  76.5561530  40.1572720  26.0320540
  76.1976470  40.8226570  26.6193880  76.2616090  39.3256270  26.4033160
  79.7574650  40.6156960  28.9160090  79.4574790  40.7614140  28.0187910
  80.5285890  40.0562250  28.8233480  85.1003100  45.4125960  26.9115220
  85.1147640  44.4806920  26.6934130  84.3928200  45.4985720  27.5504990
  86.8413900  43.7793470  19.7567650  87.1937720  43.1821600  19.0969020
  85.9576230  43.4537700  19.9275900  82.9277180  44.5391160  17.1638060
  83.6148310  45.0860370  17.5445650  82.1409600  45.0831890  17.1987670
  75.0669580  40.1563980  12.6555140  75.9364430  40.4388780  12.9391060
  74.5759900  40.9699850  12.5403950  82.2304390  41.5437190  16.7763420
  82.6867170  42.3542440  17.0023610  81.8792600  41.2260330  17.6081910
  84.5337000  47.0543530  24.0055720  85.1779220  47.2602910  24.6829140
  84.8966440  46.2931930  23.5526570  78.1316170  31.8874840  17.2485940
  78.0030800  31.8792740  18.1970860  77.3078190  32.2257930  16.8976950
  85.8069080  45.0575880  22.7233170  86.4491310  44.3569040  22.8365340
  86.3318430  45.8374320  22.5430060  89.6524800  45.3424500  12.4472310
  89.4262380  44.6254940  13.0396950  89.2621000  45.0936940  11.6094060
  87.5806700  45.8570780  25.9269230  87.9162940  46.4437470  26.6047150
  86.6607040  45.7263490  26.1567020  75.4340830  49.3691360  13.2216770
  75.7938470  49.9680700  12.5674040  75.2933170  49.9151250  13.9951800
  75.1310100  33.6465960  26.7092640  74.4168620  33.8462880  27.3145250
  75.5505140  32.8705530  27.0807440  89.2341050  43.2596440  14.1086470
  88.9462750  43.7209130  14.8964350  90.0293220  42.7994210  14.3770690
  75.4182690  47.6346220  27.6959170  75.5273810  46.6940960  27.5554560
  74.7663250  47.9000970  27.0472900  83.4095280  45.9062110  29.0957290
  83.0892150  45.1871350  29.6402980  82.7353640  46.5817180  29.1693350
  81.4509450  46.7522560  14.0390440  81.4419550  47.4852250  13.4234950
  80.5307810  46.5054140  14.1317400  77.0516090  41.9737450  14.7837200
  76.4444040  42.7136350  14.7932500  77.5265440  42.0636810  13.9575400
  86.6248880  36.1388270  24.4594090  86.9929700  35.3183480  24.7873660
  85.7647080  36.1990160  24.8749740  89.9910910  35.0945210  15.2681650
  89.3624070  35.1990880  14.5539880  89.4962830  35.3141990  16.0575530
  84.4369050  46.8150800  12.7015630  84.5381030  46.6114790  11.7717610
  83.5370790  46.5609080  12.9063410  81.9594940  37.3731160  16.6839530
  81.2511090  37.8417500  17.1253140  82.2439420  36.7153170  17.3184720
  83.5850870  38.7927860  24.6832060  84.0836120  39.2673680  25.3483910
  83.7273820  37.8691380  24.8902090  85.9910370  34.0981820  18.1235320
  85.8678150  34.1167950  17.1744830  86.9394930  34.1460760  18.2433720
  83.0787160  49.3337120  17.3963300  83.3328660  49.2958510  16.4742670
  82.1299640  49.2070450  17.3891550  80.1629960  35.6816240  14.0590240
  81.0120490  36.1186390  13.9930430  79.7961230  35.9936500  14.8862300
  89.0839740  40.2529000  18.9721810  88.1429880  40.2679230  19.1469500
  89.3983810  39.4664960  19.4182110  79.0621380  41.9348600  12.5325770
  79.8284650  41.8229960  13.0951200  79.1396070  41.2386570  11.8802540
  77.7568140  39.3673670  13.2158660  77.8371730  38.4201180  13.3276060
  78.6487890  39.6980550  13.3219320  78.5582850  49.5169060  20.3193200
  79.2945330  48.9684520  20.5901770  78.9423770  50.3825070  20.1799190
  75.4428330  45.5842630  16.1934710  74.5168110  45.8263770  16.1840120
  75.9084760  46.4116890  16.0719460  77.5641130  48.7015130  29.5078780
  78.3653860  49.0227180  29.9214180  77.0492950  48.3410710  30.2298690
  81.6685160  48.6899370  12.1418770  82.4613770  48.9788200  11.6900560
  81.1489510  48.2591540  11.4631250  86.4005760  44.8095000  29.4554190
  85.7943920  44.8326600  28.7149940  86.0959870  44.0778040  29.9921440
  87.8306130  48.5375290  28.0663600  88.7827880  48.4533310  28.0163840
  87.6834350  49.2017000  28.7397390  75.2838940  41.1888590  28.4514830
  75.7877960  40.6095870  29.0231060  74.5446360  41.4728820  28.9891200
  82.1862560  43.9102780  12.0061120  82.0813200  43.2955130  12.7322500
  82.0186780  43.3868670  11.2224130  82.3376880  42.5959580  27.9850350
  81.5722550  43.1644580  27.9005020  82.5192840  42.3035790  27.0918580
  85.4265290  42.9722810  12.6103110  84.8775390  43.4192110  13.2545850
  86.0484550  42.4672060  13.1340780  89.4800230  44.3264910  28.5425370
  90.2209700  44.6640670  28.0392830  88.7172910  44.4956970  27.9895140
  77.3162020  39.3318180  29.3464900  77.3567360  39.0332050  30.2550130
  78.1707520  39.7325790  29.1872420  81.0940410  41.9313730  14.5068410
  81.5156830  41.7653600  15.3499800  81.2191250  41.1213960  14.0123550
  79.2567830  37.9110280  27.3139390  78.7264290  37.4201230  26.6862730
  79.9255900  38.3394480  26.7797320  83.6068050  40.9551340  11.7545510
  84.1273710  40.2400360  11.3886660  84.2536450  41.5937210  12.0546020
  88.1545890  42.3779740  27.0780580  88.5686910  42.5324820  27.9271000
  87.2196890  42.5034960  27.2406360  88.6268060  39.7175900  29.0819730
  89.2088830  38.9628220  28.9940210  88.8029830  40.2483340  28.3051210
  79.7440130  34.8772650  27.3936680  79.6497000  34.2593400  26.6687550
  79.1637520  35.6038940  27.1666590  82.5101570  33.4345890  24.4264070
  82.0618870  33.4570150  23.5809620  81.8766770  33.0364910  25.0234370
  82.9161120  42.3300220  25.0476510  83.3349230  43.1732950  24.8752750
  81.9969750  42.4672260  24.8183290  85.2525020  40.0616400  26.4314350
  85.3721230  39.4657540  27.1709190  86.1119020  40.0986090  26.0115650
  87.5912920  40.6153590  25.0076860  87.0648140  41.1396210  24.4042000
  87.9344260  41.2480980  25.6386590  79.9899310  38.0046960  11.4526570
  79.7888370  37.1414320  11.8139910  79.8191360  37.9180320  10.5148170
  80.7668540  48.6353230  26.1634240  80.2289630  49.3599290  25.8442940
  81.0202500  48.1583570  25.3731580  82.0193790  36.6037750  27.6890170
  82.6093480  36.2953600  28.3767990  81.2014030  36.1317500  27.8450070
  86.8387220  36.2203560  27.9223190  86.1502740  35.5585100  27.8573180
  87.5593240  35.7741830  28.3671650  87.4687620  32.8155190  13.9813450
  87.7489910  31.9723090  14.3372870  86.6953350  33.0478300  14.4952200
  78.7882110  35.1047580  11.4404450  79.0908010  35.1115010  10.5323600
  79.5276700  34.7545440  11.9372110  83.6230750  49.8704440  26.4220890
  83.5489450  50.7739580  26.7293260  82.7209590  49.5516340  26.3942960
  82.0067040  34.0482200  12.4260650  81.6589040  33.3706190  11.8463100
  82.2079810  33.5871710  13.2404040  84.1716080  49.0362950  14.0447250
  85.0666870  49.3747920  14.0666010  84.2033710  48.3142360  13.4171530
  77.8112240  44.4090000  12.2734250  78.2487110  44.9519670  12.9291830
  78.2959970  43.5836950  12.2830590  75.0258040  47.1979030  19.7254510
  75.3561050  46.3300090  19.4933150  75.4549040  47.4037550  20.5559470
  79.6219960  45.5288040  17.3856480  79.3215500  45.4053010  18.2860390
  79.5157450  44.6696630  16.9772210  75.5148250  48.0649620  22.4636140
  75.0779240  48.2450420  23.2960290  76.0825930  48.8224240  22.3217860
  75.3472680  40.5769850  18.8225020  74.6921520  40.3081490  18.1784720
  76.1850630  40.4674330  18.3727000  89.8362070  44.2918600  24.8489610
  89.0221910  44.7215760  25.1115400  90.2436270  44.9037010  24.2358660
  88.2963120  35.3711140  13.0443510  88.7148000  35.1842120  12.2040170
  87.9899180  34.5190190  13.3546440  76.3848610  40.9622420  23.3628360
  76.7521650  40.8749820  24.2424380  75.8159430  40.1988970  23.2635220
  75.9364610  37.8731510  27.2686780  75.0420660  37.8398270  27.6080490
  76.4762160  38.0718300  28.0338030  74.5610760  37.7868780  14.7650350
  73.6574840  38.0498980  14.5902010  75.0451380  38.0579950  13.9850310
  77.1037970  36.8434320  12.6744730  77.8129670  36.4217540  12.1892010
  76.3877910  36.9109550  12.0428080  76.7512130  32.8973650  11.7147380
  77.4740260  33.4382590  12.0328600  77.0236650  32.6237070  10.8388920
  76.4404320  32.1479840  21.6170000  77.0880510  31.5977220  21.1765160
  76.8606160  32.4022990  22.4385810  76.1936320  32.3035510  24.3595320
  75.8451140  32.7599330  25.1253500  75.8624020  31.4092640  24.4417750
  77.8000690  45.4755110  28.5248510  77.7570320  45.1048020  29.4062970
  77.9311700  46.4132680  28.6650330  81.5006720  47.0314700  24.1258230
  81.2598080  47.2989260  23.2388750  82.4409360  47.2020430  24.1809090
  83.7061140  33.4947390  27.8814740  83.6450030  34.0869220  28.6310150
  84.6461520  33.3873350  27.7365000  86.3435700  33.1517450  27.5207030
  86.9576110  33.4696740  26.8588110  86.8885260  32.6666040  28.1402890
  76.8656960  31.8311710  27.6346090  77.4139950  31.6499760  26.8712200
  76.9312270  31.0405820  28.1702400  77.6388720  48.4217360  25.6446290
  77.0449040  48.2902060  26.3836330  77.6312560  47.5855500  25.1788390
  87.0843740  31.7149590  23.8476320  86.2103580  32.0484700  23.6449250
  86.9754490  31.2422770  24.6728190  87.9915720  33.9220460  25.2318040
  87.6629080  33.1072220  24.8519770  88.9398020  33.8790270  25.1083730
  77.2700950  45.7875740  24.5954330  76.5435010  45.1681030  24.5280280
  77.3310100  46.1816350  23.7252410  80.8746050  48.0020740  21.3803740
  81.3911070  47.3908100  20.8552000  81.5243430  48.5049520  21.8714750
  83.6141550  48.8929230  22.2072720  83.9019360  48.6383530  21.3305730
  84.1264770  48.3406590  22.7978290  84.8318560  32.6319430  22.7869230
  84.0490350  33.1064930  23.0665990  84.5381490  31.7274260  22.6782410
  89.3839630  33.3342530  20.8318320  89.8247720  33.2787630  19.9839920
  89.1147220  34.2500540  20.9028500  75.5530950  49.1050130  17.8051090
  75.3852990  48.4720810  18.5032980  74.6865460  49.3109530  17.4545280
  76.1758970  32.9366910  15.3082950  76.9338330  33.0495790  14.7346980
  75.7136140  33.7736110  15.2626380  82.7172780  35.0506180  18.2985260
  81.9047290  34.6763070  17.9581140  83.2214420  34.2951260  18.6006450
  87.2197760  31.7148630  19.5368330  87.8227130  32.2868840  20.0116850
  86.4790750  32.2788070  19.3142230  77.1593650  47.7983360  15.2501230
  76.6341270  48.1791390  14.5463190  77.0838230  48.4234130  15.9710940
  78.5484120  33.4630960  13.8484920  79.0776880  32.6760760  13.7192870
  79.1812440  34.1422150  14.0820450  80.7421960  33.2006100  16.9030310
  80.1124700  32.4993410  17.0700440  80.2027100  33.9610230  16.6863470
  83.6813910  49.8145330  29.5740920  84.6081220  49.5789600  29.6176880
  83.6664340  50.6417330  29.0926950  80.8677520  32.4790080  29.3382800
  80.5861790  32.9823680  28.5743620  81.2497220  31.6811830  28.9724930
  79.7586620  49.7465740  14.1250480  80.4905440  49.4625020  13.5774370
  80.0180290  49.5079020  15.0149860  78.9201410  45.8630470  14.1296810
  78.2910290  46.3315570  14.6782640  79.0349240  45.0179690  14.5643000
  87.4692980  31.8943660  29.9163270  87.3558430  32.2138270  30.8114790
  88.2862720  32.2956170  29.6200550  84.5069170  41.6915150   2.1607280
  83.7311270  41.2115590   2.4505850  85.1582100  41.0120800   1.9863440
  78.5235000  42.0034960   3.0383040  77.6919880  41.7483670   3.4379550
  79.1315980  42.0745730   3.7740960  78.5036260  46.0375050   3.2341060
  78.8064300  45.1472790   3.0551280  79.2479850  46.5945270   3.0063310
  74.8959960  39.5642500   2.7065130  75.4676070  38.7964700   2.7068770
  74.8961500  39.8631260   1.7971740  83.9478160  44.3672340   2.1677440
  83.8786440  43.4262280   2.0066570  84.7098020  44.4573750   2.7400010
  76.1384830  34.9726860   4.4934060  75.9587670  34.0752610   4.7736820
  75.7364910  35.5198730   5.1681010  84.9783330  37.1742720   2.3946370
  85.3548150  36.3014600   2.2820040  84.8802840  37.5101420   1.5036810
  76.7571500  37.4687360   3.1016400  77.4381610  37.7325730   3.7203800
  76.4419550  36.6288230   3.4354410  80.9496070  38.5154720   2.1888990
  81.4574290  39.0135690   2.8294010  81.4809310  37.7389920   2.0128350
  79.2332170  33.1553280   6.4552410  79.2350610  33.6725670   5.6498310
  78.4036480  32.6783460   6.4322340  80.4835020  42.7948460   4.6325910
  80.1504400  43.4217380   5.2746980  80.6601700  43.3210340   3.8527580
  88.9968930  36.6093540   2.1002250  88.2924500  36.8978430   2.6805360
  89.3581090  37.4193650   1.7401810  78.9147500  34.8663240   4.4622860
  79.2564310  35.7105290   4.1676730  77.9763310  35.0146980   4.5788200
  79.6954120  44.7629260   6.4475090  80.3128120  45.4380340   6.1659540
  78.8347240  45.1717240   6.3562590  88.1490450  48.0712800   3.0774910
  88.1617610  47.6675090   2.2097170  87.5965670  48.8460090   2.9736340
  87.5475890  42.9742640   4.4057520  87.9644680  42.7602750   3.5710980
  88.2715710  43.2315430   4.9766140  88.4580000  38.1599180   5.4428630
  88.0451180  38.9852890   5.6968620  87.7255950  37.5744220   5.2504990
  81.0594490  44.6326640   2.4686510  80.7622780  44.0272110   1.7894290
  82.0094310  44.6703950   2.3575870  79.3041410  37.7202290   4.0846340
  79.8556000  37.8297630   3.3099590  79.8184920  38.0939890   4.8001570
  89.1480100  48.2058510   6.1309610  88.6710660  49.0130700   5.9382220
  88.4641890  47.5536840   6.2835820  80.1512920  44.3708330   9.1194310
  79.2541450  44.5948300   9.3667710  80.1765790  44.4943270   8.1705710
  78.9784140  41.2421650   7.6951680  78.8391910  42.1144450   8.0639080
  78.0965500  40.8994460   7.5499620  80.7764490  47.1843350   9.9036830
  80.7479920  47.5886300   9.0365260  80.6129460  46.2553710   9.7408430
  74.9302790  43.0119200   3.6122590  75.0083210  43.1467970   2.6678310
  75.5444470  42.3035090   3.8050710  85.9929300  48.8611300   6.9295820
  86.5073970  48.7719310   7.7318250  85.1498380  49.2071000   7.2223730
  74.9862310  44.0533370   6.1517050  75.1493350  43.5838730   5.3336420
  75.4514760  43.5456930   6.8165890  84.0450890  36.0507650   6.7912940
  83.5830260  36.2590670   7.6032880  83.6429000  35.2367000   6.4883610
  89.0455400  37.2716600   7.9209600  88.1948990  36.9722350   8.2418670
  88.8857190  37.5158610   7.0093420  86.1405110  38.7718350  10.0208390
  86.4658520  37.9382100   9.6810620  86.9285440  39.2946870  10.1686720
  81.7956980  33.7286460   3.0467220  82.0929310  34.6349290   2.9659240
  82.3442540  33.2405240   2.4326790  81.9894510  39.2058280   9.5819140
  81.8938110  38.2653010   9.4319540  82.8326490  39.4273350   9.1867210
  77.1205050  35.6171950   7.7352920  76.7268440  36.4647160   7.9425700
  76.4323450  34.9798320   7.9261560  83.6950100  35.7006920  10.8049660
  83.0048420  35.5079120  11.4395750  84.4382400  35.9841560  11.3373960
  74.4222100  33.5400410   1.7683000  74.1335150  34.1103270   2.4807980
  75.1667860  33.0604860   2.1314230  85.9713070  39.5405360   3.6403580
  85.2394190  40.0492170   3.9893680  85.5737410  38.7235340   3.3392360
  86.4338980  34.9939040   3.0526520  86.4511720  35.4447690   3.8968370
  86.1854560  34.0944680   3.2659960  89.8609730  32.4071220   8.8912900
  90.1855500  31.6760880   9.4170880  89.8966240  32.0884860   7.9893890
  76.5601290  43.4284800   8.3112860  76.1756080  42.7878470   8.9095820
  76.8713480  44.1320920   8.8807590  82.7098430  40.2761340   3.7921480
  83.0768560  39.8019910   4.5382820  82.5203490  41.1502910   4.1329820
  80.4997800  39.3169980   6.1105690  80.1954870  40.1961960   6.3356050
  81.4544260  39.3769770   6.1463130  85.1686370  42.5905390   8.3867930
  85.1023680  41.6701060   8.1325520  84.5391510  42.6880830   9.1012570
  76.5561530  40.1572720   7.2577050  76.1976470  40.8226570   7.8450390
  76.2616090  39.3256270   7.6289670  79.7574650  40.6156960  10.1416600
  79.4574790  40.7614140   9.2444420  80.5285890  40.0562250  10.0489990
  85.1003100  45.4125960   8.1371730  85.1147640  44.4806920   7.9190640
  84.3928200  45.4985720   8.7761500  84.5337000  47.0543530   5.2312230
  85.1779220  47.2602910   5.9085650  84.8966440  46.2931930   4.7783080
  85.8069080  45.0575880   3.9489680  86.4491310  44.3569040   4.0621850
  86.3318430  45.8374320   3.7686570  87.5806700  45.8570780   7.1525740
  87.9162940  46.4437470   7.8303660  86.6607040  45.7263490   7.3823530
  75.1310100  33.6465960   7.9349150  74.4168620  33.8462880   8.5401760
  75.5505140  32.8705530   8.3063950  75.4182690  47.6346220   8.9215680
  75.5273810  46.6940960   8.7811070  74.7663250  47.9000970   8.2729410
  83.4095280  45.9062110  10.3213800  83.0892150  45.1871350  10.8659490
  82.7353640  46.5817180  10.3949860  86.6248880  36.1388270   5.6850600
  86.9929700  35.3183480   6.0130170  85.7647080  36.1990160   6.1006250
  83.5850870  38.7927860   5.9088570  84.0836120  39.2673680   6.5740420
  83.7273820  37.8691380   6.1158600  77.5641130  48.7015130  10.7335290
  78.3653860  49.0227180  11.1470690  77.0492950  48.3410710  11.4555200
  86.4005760  44.8095000  10.6810700  85.7943920  44.8326600   9.9406450
  86.0959870  44.0778040  11.2177950  87.8306130  48.5375290   9.2920110
  88.7827880  48.4533310   9.2420350  87.6834350  49.2017000   9.9653900
  75.2838940  41.1888590   9.6771340  75.7877960  40.6095870  10.2487570
  74.5446360  41.4728820  10.2147710  82.3376880  42.5959580   9.2106860
  81.5722550  43.1644580   9.1261530  82.5192840  42.3035790   8.3175090
  89.4800230  44.3264910   9.7681880  90.2209700  44.6640670   9.2649340
  88.7172910  44.4956970   9.2151650  77.3162020  39.3318180  10.5721410
  77.3567360  39.0332050  11.4806640  78.1707520  39.7325790  10.4128930
  79.2567830  37.9110280   8.5395900  78.7264290  37.4201230   7.9119240
  79.9255900  38.3394480   8.0053830  88.1545890  42.3779740   8.3037090
  88.5686910  42.5324820   9.1527510  87.2196890  42.5034960   8.4662870
  88.6268060  39.7175900  10.3076240  89.2088830  38.9628220  10.2196720
  88.8029830  40.2483340   9.5307720  79.7440130  34.8772650   8.6193190
  79.6497000  34.2593400   7.8944060  79.1637520  35.6038940   8.3923100
  82.5101570  33.4345890   5.6520580  82.0618870  33.4570150   4.8066130
  81.8766770  33.0364910   6.2490880  82.9161120  42.3300220   6.2733020
  83.3349230  43.1732950   6.1009260  81.9969750  42.4672260   6.0439800
  85.2525020  40.0616400   7.6570860  85.3721230  39.4657540   8.3965700
  86.1119020  40.0986090   7.2372160  87.5912920  40.6153590   6.2333370
  87.0648140  41.1396210   5.6298510  87.9344260  41.2480980   6.8643100
  80.7668540  48.6353230   7.3890750  80.2289630  49.3599290   7.0699450
  81.0202500  48.1583570   6.5988090  82.0193790  36.6037750   8.9146680
  82.6093480  36.2953600   9.6024500  81.2014030  36.1317500   9.0706580
  86.8387220  36.2203560   9.1479700  86.1502740  35.5585100   9.0829690
  87.5593240  35.7741830   9.5928160  83.6230750  49.8704440   7.6477400
  83.5489450  50.7739580   7.9549770  82.7209590  49.5516340   7.6199470
  75.5148250  48.0649620   3.6892650  75.0779240  48.2450420   4.5216800
  76.0825930  48.8224240   3.5474370  89.8362070  44.2918600   6.0746120
  89.0221910  44.7215760   6.3371910  90.2436270  44.9037010   5.4615170
  76.3848610  40.9622420   4.5884870  76.7521650  40.8749820   5.4680890
  75.8159430  40.1988970   4.4891730  75.9364610  37.8731510   8.4943290
  75.0420660  37.8398270   8.8337000  76.4762160  38.0718300   9.2594540
  76.4404320  32.1479840   2.8426510  77.0880510  31.5977220   2.4021670
  76.8606160  32.4022990   3.6642320  76.1936320  32.3035510   5.5851830
  75.8451140  32.7599330   6.3510010  75.8624020  31.4092640   5.6674260
  77.8000690  45.4755110   9.7505020  77.7570320  45.1048020  10.6319480
  77.9311700  46.4132680   9.8906840  81.5006720  47.0314700   5.3514740
  81.2598080  47.2989260   4.4645260  82.4409360  47.2020430   5.4065600
  83.7061140  33.4947390   9.1071250  83.6450030  34.0869220   9.8566660
  84.6461520  33.3873350   8.9621510  86.3435700  33.1517450   8.7463540
  86.9576110  33.4696740   8.0844620  86.8885260  32.6666040   9.3659400
  76.8656960  31.8311710   8.8602600  77.4139950  31.6499760   8.0968710
  76.9312270  31.0405820   9.3958910  77.6388720  48.4217360   6.8702800
  77.0449040  48.2902060   7.6092840  77.6312560  47.5855500   6.4044900
  87.0843740  31.7149590   5.0732830  86.2103580  32.0484700   4.8705760
  86.9754490  31.2422770   5.8984700  87.9915720  33.9220460   6.4574550
  87.6629080  33.1072220   6.0776280  88.9398020  33.8790270   6.3340240
  77.2700950  45.7875740   5.8210840  76.5435010  45.1681030   5.7536790
  77.3310100  46.1816350   4.9508920  80.8746050  48.0020740   2.6060250
  81.3911070  47.3908100   2.0808510  81.5243430  48.5049520   3.0971260
  83.6141550  48.8929230   3.4329230  83.9019360  48.6383530   2.5562240
  84.1264770  48.3406590   4.0234800  84.8318560  32.6319430   4.0125740
  84.0490350  33.1064930   4.2922500  84.5381490  31.7274260   3.9038920
  83.6813910  49.8145330  10.7997430  84.6081220  49.5789600  10.8433390
  83.6664340  50.6417330  10.3183460  80.8677520  32.4790080  10.5639310
  80.5861790  32.9823680   9.8000130  81.2497220  31.6811830  10.1981440
  87.4692980  31.8943660  11.1419780  87.3558430  32.2138270  12.0371300
  88.2862720  32.2956170  10.8457060  86.3751130  21.1392640  56.6028480
  86.2945180  20.2247250  56.3320190  85.9615550  21.6359710  55.8968190
  88.5276600  27.3231850  57.2636880  88.0658130  26.5519090  57.5924050
  89.3402150  27.3497920  57.7689330  76.9326950  18.1893360  53.1455900
  76.0443650  18.5309330  53.0435780  77.2168140  17.9893680  52.2536730
  84.7539910  29.6089860  56.8840870  84.1351350  30.0647360  56.3135310
  85.6091690  29.7641320  56.4830570  79.1088340  16.7724860  54.1794280
  79.2155090  17.6728590  54.4863040  78.1980700  16.7242830  53.8888930
  88.7607450  15.8949670  55.6505180  89.5817070  15.4046240  55.6930660
  88.7941530  16.4847330  56.4037020  85.6203260  24.4929100  54.2772780
  85.0020530  24.9578550  53.7135500  86.1326510  25.1856580  54.6942290
  74.9886460  25.1785630  51.6512410  74.6114440  25.6672730  50.9197310
  75.2459530  25.8510910  52.2818940  82.5975390  13.5802020  57.1097920
  82.9050370  13.0248910  56.3933420  81.6676090  13.7146480  56.9270910
  89.4435870  26.0185530  54.4895550  89.3332200  25.0759860  54.6144970
  89.4404120  26.3801170  55.3758310  84.9856150  21.6450850  53.8458040
  84.0585430  21.5788230  54.0746510  85.1380970  22.5830980  53.7313280
  84.9725230  17.9167850  50.8425200  84.0328900  18.0781810  50.9277660
  85.2908490  18.6353530  50.2961190  89.0153440  23.2071150  54.3493290
  88.3965860  22.8690700  53.7019590  88.9977890  22.5630910  55.0572480
  80.5912790  22.1715590  56.6277770  80.1869790  21.4592840  56.1323670
  80.6775910  21.8268830  57.5165810  87.1918140  22.4457960  51.3566040
  87.6311420  21.6080390  51.2103860  87.9046560  23.0787360  51.4430180
  85.3013520  27.3854030  55.3247280  85.7409430  28.1278360  54.9102670
  85.2400410  27.6280600  56.2486240  77.2917420  21.0660570  54.1284420
  77.1715020  21.7922660  53.5165690  76.9818310  20.2963480  53.6512330
  76.1750420  25.9375900  56.3459240  75.7678500  26.0790490  55.4912840
  77.0663430  25.6536060  56.1430450  87.9683700  30.3723150  52.6810290
  87.8084840  30.0826090  53.5792120  87.8030410  29.5963280  52.1455520
  80.4472080  30.1521680  54.4581910  80.2714560  29.2357220  54.2449710
  79.5927820  30.5108970  54.6979710  87.6709830  27.8810710  51.2408290
  86.9774990  27.8788000  50.5810570  88.4132690  27.4570030  50.8102460
  87.2359760  29.5073420  55.3156780  87.6916710  28.7262800  55.6295400
  87.5752280  30.2180240  55.8597960  79.7581080  14.4095640  57.5108090
  79.3149230  15.1905180  57.1792610  80.3166070  14.7325530  58.2179030
  82.8739900  14.0306340  52.3913920  82.2494080  14.0266210  53.1167230
  82.7870020  13.1637300  51.9949890  79.5495300  19.5329210  55.2389340
  79.3236220  19.3166380  56.1435960  78.7687830  19.9657670  54.8935310
  86.7793060  19.5392580  53.8379990  86.1801950  20.2628380  53.6543610
  87.3272670  19.4769360  53.0556440  85.3857930  18.1756120  55.8683270
  85.7787500  18.4928320  55.0551960  85.7474780  17.2968000  55.9827790
  74.6092330  18.7077040  49.3016190  74.5267000  19.6507800  49.4431180
  74.2575390  18.5651950  48.4228540  82.4090460  17.4416070  58.3686540
  82.4126520  17.0006020  57.5191080  83.3041580  17.7633400  58.4758360
  78.2592840  17.3242560  57.3280750  77.9192890  17.8017790  58.0847800
  77.4970160  16.8707680  56.9681850  82.4710610  18.4428150  51.3593300
  82.5923430  18.4014630  52.3079120  82.0859120  19.3052300  51.2040030
  81.4832110  20.7529290  50.7576600  80.9149010  20.3047540  50.1312510
  82.1921110  21.1122070  50.2241750  75.5738920  16.2461540  56.2445420
  75.2885840  15.8817210  57.0824040  75.5117780  15.5142000  55.6308560
  79.0279590  24.7487480  53.0303010  78.2541850  24.2085100  52.8701730
  79.7574220  24.2294090  52.6920770  85.2477510  15.1390800  52.9658790
  84.4342120  14.6403970  52.8904100  85.0539460  15.9789050  52.5495140
  87.9625900  19.5110450  51.2620950  88.8505520  19.8227680  51.0872290
  87.9330990  18.6382700  50.8701530  79.0716990  24.4167860  56.6681820
  79.5895660  23.6136120  56.6138710  78.6201010  24.3547000  57.5098650
  83.9586490  25.6834140  51.9409120  84.3002190  26.4276370  51.4452440
  83.1299200  25.9965260  52.3033950  86.8413900  25.0049980  57.3054630
  87.1937720  24.4078110  56.6456000  85.9576230  24.6794210  57.4762880
  82.9277180  25.7647670  54.7125040  83.6148310  26.3116880  55.0932630
  82.1409600  26.3088400  54.7474650  75.0669580  21.3820490  50.2042120
  75.9364430  21.6645290  50.4878040  74.5759900  22.1956360  50.0890930
  82.2304390  22.7693700  54.3250400  82.6867170  23.5798950  54.5510590
  81.8792600  22.4516840  55.1568890  78.1316170  13.1131350  54.7972920
  78.0030800  13.1049250  55.7457840  77.3078190  13.4514440  54.4463930
  89.6524800  26.5681010  49.9959290  89.4262380  25.8511450  50.5883930
  89.2621000  26.3193450  49.1581040  75.4340830  30.5947870  50.7703750
  75.7938470  31.1937210  50.1161020  75.2933170  31.1407760  51.5438780
  89.2341050  24.4852950  51.6573450  88.9462750  24.9465640  52.4451330
  90.0293220  24.0250720  51.9257670  81.4509450  27.9779070  51.5877420
  81.4419550  28.7108760  50.9721930  80.5307810  27.7310650  51.6804380
  77.0516090  23.1993960  52.3324180  76.4444040  23.9392860  52.3419480
  77.5265440  23.2893320  51.5062380  89.9910910  16.3201720  52.8168630
  89.3624070  16.4247390  52.1026860  89.4962830  16.5398500  53.6062510
  84.4369050  28.0407310  50.2502610  84.5381030  27.8371300  49.3204590
  83.5370790  27.7865590  50.4550390  81.9594940  18.5987670  54.2326510
  81.2511090  19.0674010  54.6740120  82.2439420  17.9409680  54.8671700
  85.9910370  15.3238330  55.6722300  85.8678150  15.3424460  54.7231810
  86.9394930  15.3717270  55.7920700  83.0787160  30.5593630  54.9450280
  83.3328660  30.5215020  54.0229650  82.1299640  30.4326960  54.9378530
  80.1629960  16.9072750  51.6077220  81.0120490  17.3442900  51.5417410
  79.7961230  17.2193010  52.4349280  89.0839740  21.4785510  56.5208790
  88.1429880  21.4935740  56.6956480  89.3983810  20.6921470  56.9669090
  79.0621380  23.1605110  50.0812750  79.8284650  23.0486470  50.6438180
  79.1396070  22.4643080  49.4289520  77.7568140  20.5930180  50.7645640
  77.8371730  19.6457690  50.8763040  78.6487890  20.9237060  50.8706300
  78.5582850  30.7425570  57.8680180  79.2945330  30.1941030  58.1388750
  78.9423770  31.6081580  57.7286170  75.4428330  26.8099140  53.7421690
  74.5168110  27.0520280  53.7327100  75.9084760  27.6373400  53.6206440
  81.6685160  29.9155880  49.6905750  82.4613770  30.2044710  49.2387540
  81.1489510  29.4848050  49.0118230  82.1862560  25.1359290  49.5548100
  82.0813200  24.5211640  50.2809480  82.0186780  24.6125180  48.7711110
  85.4265290  24.1979320  50.1590090  84.8775390  24.6448620  50.8032830
  86.0484550  23.6928570  50.6827760  81.0940410  23.1570240  52.0555390
  81.5156830  22.9910110  52.8986780  81.2191250  22.3470470  51.5610530
  83.6068050  22.1807850  49.3032490  84.1273710  21.4656870  48.9373640
  84.2536450  22.8193720  49.6033000  79.9899310  19.2303470  49.0013550
  79.7888370  18.3670830  49.3626890  79.8191360  19.1436830  48.0635150
  87.4687620  14.0411700  51.5300430  87.7489910  13.1979600  51.8859850
  86.6953350  14.2734810  52.0439180  78.7882110  16.3304090  48.9891430
  79.0908010  16.3371520  48.0810580  79.5276700  15.9801950  49.4859090
  82.0067040  15.2738710  49.9747630  81.6589040  14.5962700  49.3950080
  82.2079810  14.8128220  50.7891020  84.1716080  30.2619460  51.5934230
  85.0666870  30.6004430  51.6152990  84.2033710  29.5398870  50.9658510
  77.8112240  25.6346510  49.8221230  78.2487110  26.1776180  50.4778810
  78.2959970  24.8093460  49.8317570  75.0258040  28.4235540  57.2741490
  75.3561050  27.5556600  57.0420130  75.4549040  28.6294060  58.1046450
  79.6219960  26.7544550  54.9343460  79.3215500  26.6309520  55.8347370
  79.5157450  25.8953140  54.5259190  75.3472680  21.8026360  56.3712000
  74.6921520  21.5338000  55.7271700  76.1850630  21.6930840  55.9213980
  88.2963120  16.5967650  50.5930490  88.7148000  16.4098630  49.7527150
  87.9899180  15.7446700  50.9033420  74.5610760  19.0125290  52.3137330
  73.6574840  19.2755490  52.1388990  75.0451380  19.2836460  51.5337290
  77.1037970  18.0690830  50.2231710  77.8129670  17.6474050  49.7378990
  76.3877910  18.1366060  49.5915060  76.7512130  14.1230160  49.2634360
  77.4740260  14.6639100  49.5815580  77.0236650  13.8493580  48.3875900
  89.3839630  14.5599040  58.3805300  89.8247720  14.5044140  57.5326900
  89.1147220  15.4757050  58.4515480  75.5530950  30.3306640  55.3538070
  75.3852990  29.6977320  56.0519960  74.6865460  30.5366040  55.0032260
  76.1758970  14.1623420  52.8569930  76.9338330  14.2752300  52.2833960
  75.7136140  14.9992620  52.8113360  82.7172780  16.2762690  55.8472240
  81.9047290  15.9019580  55.5068120  83.2214420  15.5207770  56.1493430
  87.2197760  12.9405140  57.0855310  87.8227130  13.5125350  57.5603830
  86.4790750  13.5044580  56.8629210  77.1593650  29.0239870  52.7988210
  76.6341270  29.4047900  52.0950170  77.0838230  29.6490640  53.5197920
  78.5484120  14.6887470  51.3971900  79.0776880  13.9017270  51.2679850
  79.1812440  15.3678660  51.6307430  80.7421960  14.4262610  54.4517290
  80.1124700  13.7249920  54.6187420  80.2027100  15.1866740  54.2350450
  79.7586620  30.9722250  51.6737460  80.4905440  30.6881530  51.1261350
  80.0180290  30.7335530  52.5636840  78.9201410  27.0886980  51.6783790
  78.2910290  27.5572080  52.2269620  79.0349240  26.2436200  52.1129980
  86.3751130  21.1392640  37.8284990  86.2945180  20.2247250  37.5576700
  85.9615550  21.6359710  37.1224700  84.5069170  22.9171660  39.7094260
  83.7311270  22.4372100  39.9992830  85.1582100  22.2377310  39.5350420
  78.5235000  23.2291470  40.5870020  77.6919880  22.9740180  40.9866530
  79.1315980  23.3002240  41.3227940  88.5276600  27.3231850  38.4893390
  88.0658130  26.5519090  38.8180560  89.3402150  27.3497920  38.9945840
  78.5036260  27.2631560  40.7828040  78.8064300  26.3729300  40.6038260
  79.2479850  27.8201780  40.5550290  76.9326950  18.1893360  34.3712410
  76.0443650  18.5309330  34.2692290  77.2168140  17.9893680  33.4793240
  74.8959960  20.7899010  40.2552110  75.4676070  20.0221210  40.2555750
  74.8961500  21.0887770  39.3458720  84.7539910  29.6089860  38.1097380
  84.1351350  30.0647360  37.5391820  85.6091690  29.7641320  37.7087080
  83.9478160  25.5928850  39.7164420  83.8786440  24.6518790  39.5553550
  84.7098020  25.6830260  40.2886990  76.1384830  16.1983370  42.0421040
  75.9587670  15.3009120  42.3223800  75.7364910  16.7455240  42.7167990
  84.9783330  18.3999230  39.9433350  85.3548150  17.5271110  39.8307020
  84.8802840  18.7357930  39.0523790  79.1088340  16.7724860  35.4050790
  79.2155090  17.6728590  35.7119550  78.1980700  16.7242830  35.1145440
  88.7607450  15.8949670  36.8761690  89.5817070  15.4046240  36.9187170
  88.7941530  16.4847330  37.6293530  76.7571500  18.6943870  40.6503380
  77.4381610  18.9582240  41.2690780  76.4419550  17.8544740  40.9841390
  80.9496070  19.7411230  39.7375970  81.4574290  20.2392200  40.3780990
  81.4809310  18.9646430  39.5615330  79.2332170  14.3809790  44.0039390
  79.2350610  14.8982180  43.1985290  78.4036480  13.9039970  43.9809320
  85.6203260  24.4929100  35.5029290  85.0020530  24.9578550  34.9392010
  86.1326510  25.1856580  35.9198800  80.4835020  24.0204970  42.1812890
  80.1504400  24.6473890  42.8233960  80.6601700  24.5466850  41.4014560
  88.9968930  17.8350050  39.6489230  88.2924500  18.1234940  40.2292340
  89.3581090  18.6450160  39.2888790  78.9147500  16.0919750  42.0109840
  79.2564310  16.9361800  41.7163710  77.9763310  16.2403490  42.1275180
  79.6954120  25.9885770  43.9962070  80.3128120  26.6636850  43.7146520
  78.8347240  26.3973750  43.9049570  74.9886460  25.1785630  32.8768920
  74.6114440  25.6672730  32.1453820  75.2459530  25.8510910  33.5075450
  82.5975390  13.5802020  38.3354430  82.9050370  13.0248910  37.6189930
  81.6676090  13.7146480  38.1527420  88.1490450  29.2969310  40.6261890
  88.1617610  28.8931600  39.7584150  87.5965670  30.0716600  40.5223320
  89.4435870  26.0185530  35.7152060  89.3332200  25.0759860  35.8401480
  89.4404120  26.3801170  36.6014820  87.5475890  24.1999150  41.9544500
  87.9644680  23.9859260  41.1197960  88.2715710  24.4571940  42.5253120
  84.9856150  21.6450850  35.0714550  84.0585430  21.5788230  35.3003020
  85.1380970  22.5830980  34.9569790  84.9725230  17.9167850  32.0681710
  84.0328900  18.0781810  32.1534170  85.2908490  18.6353530  31.5217700
  89.0153440  23.2071150  35.5749800  88.3965860  22.8690700  34.9276100
  88.9977890  22.5630910  36.2828990  88.4580000  19.3855690  42.9915610
  88.0451180  20.2109400  43.2455600  87.7255950  18.8000730  42.7991970
  80.5912790  22.1715590  37.8534280  80.1869790  21.4592840  37.3580180
  80.6775910  21.8268830  38.7422320  81.0594490  25.8583150  40.0173490
  80.7622780  25.2528620  39.3381270  82.0094310  25.8960460  39.9062850
  79.3041410  18.9458800  41.6333320  79.8556000  19.0554140  40.8586570
  79.8184920  19.3196400  42.3488550  89.1480100  29.4315020  43.6796590
  88.6710660  30.2387210  43.4869200  88.4641890  28.7793350  43.8322800
  80.1512920  25.5964840  46.6681290  79.2541450  25.8204810  46.9154690
  80.1765790  25.7199780  45.7192690  87.1918140  22.4457960  32.5822550
  87.6311420  21.6080390  32.4360370  87.9046560  23.0787360  32.6686690
  78.9784140  22.4678160  45.2438660  78.8391910  23.3400960  45.6126060
  78.0965500  22.1250970  45.0986600  85.3013520  27.3854030  36.5503790
  85.7409430  28.1278360  36.1359180  85.2400410  27.6280600  37.4742750
  80.7764490  28.4099860  47.4523810  80.7479920  28.8142810  46.5852240
  80.6129460  27.4810220  47.2895410  77.2917420  21.0660570  35.3540930
  77.1715020  21.7922660  34.7422200  76.9818310  20.2963480  34.8768840
  74.9302790  24.2375710  41.1609570  75.0083210  24.3724480  40.2165290
  75.5444470  23.5291600  41.3537690  76.1750420  25.9375900  37.5715750
  75.7678500  26.0790490  36.7169350  77.0663430  25.6536060  37.3686960
  85.9929300  30.0867810  44.4782800  86.5073970  29.9975820  45.2805230
  85.1498380  30.4327510  44.7710710  87.9683700  30.3723150  33.9066800
  87.8084840  30.0826090  34.8048630  87.8030410  29.5963280  33.3712030
  80.4472080  30.1521680  35.6838420  80.2714560  29.2357220  35.4706220
  79.5927820  30.5108970  35.9236220  87.6709830  27.8810710  32.4664800
  86.9774990  27.8788000  31.8067080  88.4132690  27.4570030  32.0358970
  87.2359760  29.5073420  36.5413290  87.6916710  28.7262800  36.8551910
  87.5752280  30.2180240  37.0854470  74.9862310  25.2789880  43.7004030
  75.1493350  24.8095240  42.8823400  75.4514760  24.7713440  44.3652870
  79.7581080  14.4095640  38.7364600  79.3149230  15.1905180  38.4049120
  80.3166070  14.7325530  39.4435540  84.0450890  17.2764160  44.3399920
  83.5830260  17.4847180  45.1519860  83.6429000  16.4623510  44.0370590
  89.0455400  18.4973110  45.4696580  88.1948990  18.1978860  45.7905650
  88.8857190  18.7415120  44.5580400  86.1405110  19.9974860  47.5695370
  86.4658520  19.1638610  47.2297600  86.9285440  20.5203380  47.7173700
  82.8739900  14.0306340  33.6170430  82.2494080  14.0266210  34.3423740
  82.7870020  13.1637300  33.2206400  81.7956980  14.9542970  40.5954200
  82.0929310  15.8605800  40.5146220  82.3442540  14.4661750  39.9813770
  79.5495300  19.5329210  36.4645850  79.3236220  19.3166380  37.3692470
  78.7687830  19.9657670  36.1191820  86.7793060  19.5392580  35.0636500
  86.1801950  20.2628380  34.8800120  87.3272670  19.4769360  34.2812950
  81.9894510  20.4314790  47.1306120  81.8938110  19.4909520  46.9806520
  82.8326490  20.6529860  46.7354190  85.3857930  18.1756120  37.0939780
  85.7787500  18.4928320  36.2808470  85.7474780  17.2968000  37.2084300
  77.1205050  16.8428460  45.2839900  76.7268440  17.6903670  45.4912680
  76.4323450  16.2054830  45.4748540  83.6950100  16.9263430  48.3536640
  83.0048420  16.7335630  48.9882730  84.4382400  17.2098070  48.8860940
  74.4222100  14.7656920  39.3169980  74.1335150  15.3359780  40.0294960
  75.1667860  14.2861370  39.6801210  74.6092330  18.7077040  30.5272700
  74.5267000  19.6507800  30.6687690  74.2575390  18.5651950  29.6485050
  85.9713070  20.7661870  41.1890560  85.2394190  21.2748680  41.5380660
  85.5737410  19.9491850  40.8879340  82.4090460  17.4416070  39.5943050
  82.4126520  17.0006020  38.7447590  83.3041580  17.7633400  39.7014870
  78.2592840  17.3242560  38.5537260  77.9192890  17.8017790  39.3104310
  77.4970160  16.8707680  38.1938360  82.4710610  18.4428150  32.5849810
  82.5923430  18.4014630  33.5335630  82.0859120  19.3052300  32.4296540
  86.4338980  16.2195550  40.6013500  86.4511720  16.6704200  41.4455350
  86.1854560  15.3201190  40.8146940  81.4832110  20.7529290  31.9833110
  80.9149010  20.3047540  31.3569020  82.1921110  21.1122070  31.4498260
  89.8609730  13.6327730  46.4399880  90.1855500  12.9017390  46.9657860
  89.8966240  13.3141370  45.5380870  76.5601290  24.6541310  45.8599840
  76.1756080  24.0134980  46.4582800  76.8713480  25.3577430  46.4294570
  82.7098430  21.5017850  41.3408460  83.0768560  21.0276420  42.0869800
  82.5203490  22.3759420  41.6816800  75.5738920  16.2461540  37.4701930
  75.2885840  15.8817210  38.3080550  75.5117780  15.5142000  36.8565070
  80.4997800  20.5426490  43.6592670  80.1954870  21.4218470  43.8843030
  81.4544260  20.6026280  43.6950110  79.0279590  24.7487480  34.2559520
  78.2541850  24.2085100  34.0958240  79.7574220  24.2294090  33.9177280
  85.2477510  15.1390800  34.1915300  84.4342120  14.6403970  34.1160610
  85.0539460  15.9789050  33.7751650  85.1686370  23.8161900  45.9354910
  85.1023680  22.8957570  45.6812500  84.5391510  23.9137340  46.6499550
  87.9625900  19.5110450  32.4877460  88.8505520  19.8227680  32.3128800
  87.9330990  18.6382700  32.0958040  79.0716990  24.4167860  37.8938330
  79.5895660  23.6136120  37.8395220  78.6201010  24.3547000  38.7355160
  83.9586490  25.6834140  33.1665630  84.3002190  26.4276370  32.6708950
  83.1299200  25.9965260  33.5290460  76.5561530  21.3829230  44.8064030
  76.1976470  22.0483080  45.3937370  76.2616090  20.5512780  45.1776650
  79.7574650  21.8413470  47.6903580  79.4574790  21.9870650  46.7931400
  80.5285890  21.2818760  47.5976970  85.1003100  26.6382470  45.6858710
  85.1147640  25.7063430  45.4677620  84.3928200  26.7242230  46.3248480
  86.8413900  25.0049980  38.5311140  87.1937720  24.4078110  37.8712510
  85.9576230  24.6794210  38.7019390  82.9277180  25.7647670  35.9381550
  83.6148310  26.3116880  36.3189140  82.1409600  26.3088400  35.9731160
  75.0669580  21.3820490  31.4298630  75.9364430  21.6645290  31.7134550
  74.5759900  22.1956360  31.3147440  82.2304390  22.7693700  35.5506910
  82.6867170  23.5798950  35.7767100  81.8792600  22.4516840  36.3825400
  84.5337000  28.2800040  42.7799210  85.1779220  28.4859420  43.4572630
  84.8966440  27.5188440  42.3270060  78.1316170  13.1131350  36.0229430
  78.0030800  13.1049250  36.9714350  77.3078190  13.4514440  35.6720440
  85.8069080  26.2832390  41.4976660  86.4491310  25.5825550  41.6108830
  86.3318430  27.0630830  41.3173550  89.6524800  26.5681010  31.2215800
  89.4262380  25.8511450  31.8140440  89.2621000  26.3193450  30.3837550
  87.5806700  27.0827290  44.7012720  87.9162940  27.6693980  45.3790640
  86.6607040  26.9520000  44.9310510  75.4340830  30.5947870  31.9960260
  75.7938470  31.1937210  31.3417530  75.2933170  31.1407760  32.7695290
  75.1310100  14.8722470  45.4836130  74.4168620  15.0719390  46.0888740
  75.5505140  14.0962040  45.8550930  89.2341050  24.4852950  32.8829960
  88.9462750  24.9465640  33.6707840  90.0293220  24.0250720  33.1514180
  75.4182690  28.8602730  46.4702660  75.5273810  27.9197470  46.3298050
  74.7663250  29.1257480  45.8216390  83.4095280  27.1318620  47.8700780
  83.0892150  26.4127860  48.4146470  82.7353640  27.8073690  47.9436840
  81.4509450  27.9779070  32.8133930  81.4419550  28.7108760  32.1978440
  80.5307810  27.7310650  32.9060890  77.0516090  23.1993960  33.5580690
  76.4444040  23.9392860  33.5675990  77.5265440  23.2893320  32.7318890
  86.6248880  17.3644780  43.2337580  86.9929700  16.5439990  43.5617150
  85.7647080  17.4246670  43.6493230  89.9910910  16.3201720  34.0425140
  89.3624070  16.4247390  33.3283370  89.4962830  16.5398500  34.8319020
  84.4369050  28.0407310  31.4759120  84.5381030  27.8371300  30.5461100
  83.5370790  27.7865590  31.6806900  81.9594940  18.5987670  35.4583020
  81.2511090  19.0674010  35.8996630  82.2439420  17.9409680  36.0928210
  83.5850870  20.0184370  43.4575550  84.0836120  20.4930190  44.1227400
  83.7273820  19.0947890  43.6645580  85.9910370  15.3238330  36.8978810
  85.8678150  15.3424460  35.9488320  86.9394930  15.3717270  37.0177210
  83.0787160  30.5593630  36.1706790  83.3328660  30.5215020  35.2486160
  82.1299640  30.4326960  36.1635040  80.1629960  16.9072750  32.8333730
  81.0120490  17.3442900  32.7673920  79.7961230  17.2193010  33.6605790
  89.0839740  21.4785510  37.7465300  88.1429880  21.4935740  37.9212990
  89.3983810  20.6921470  38.1925600  79.0621380  23.1605110  31.3069260
  79.8284650  23.0486470  31.8694690  79.1396070  22.4643080  30.6546030
  77.7568140  20.5930180  31.9902150  77.8371730  19.6457690  32.1019550
  78.6487890  20.9237060  32.0962810  78.5582850  30.7425570  39.0936690
  79.2945330  30.1941030  39.3645260  78.9423770  31.6081580  38.9542680
  75.4428330  26.8099140  34.9678200  74.5168110  27.0520280  34.9583610
  75.9084760  27.6373400  34.8462950  77.5641130  29.9271640  48.2822270
  78.3653860  30.2483690  48.6957670  77.0492950  29.5667220  49.0042180
  81.6685160  29.9155880  30.9162260  82.4613770  30.2044710  30.4644050
  81.1489510  29.4848050  30.2374740  86.4005760  26.0351510  48.2297680
  85.7943920  26.0583110  47.4893430  86.0959870  25.3034550  48.7664930
  87.8306130  29.7631800  46.8407090  88.7827880  29.6789820  46.7907330
  87.6834350  30.4273510  47.5140880  75.2838940  22.4145100  47.2258320
  75.7877960  21.8352380  47.7974550  74.5446360  22.6985330  47.7634690
  82.1862560  25.1359290  30.7804610  82.0813200  24.5211640  31.5065990
  82.0186780  24.6125180  29.9967620  82.3376880  23.8216090  46.7593840
  81.5722550  24.3901090  46.6748510  82.5192840  23.5292300  45.8662070
  85.4265290  24.1979320  31.3846600  84.8775390  24.6448620  32.0289340
  86.0484550  23.6928570  31.9084270  89.4800230  25.5521420  47.3168860
  90.2209700  25.8897180  46.8136320  88.7172910  25.7213480  46.7638630
  77.3162020  20.5574690  48.1208390  77.3567360  20.2588560  49.0293620
  78.1707520  20.9582300  47.9615910  81.0940410  23.1570240  33.2811900
  81.5156830  22.9910110  34.1243290  81.2191250  22.3470470  32.7867040
  79.2567830  19.1366790  46.0882880  78.7264290  18.6457740  45.4606220
  79.9255900  19.5650990  45.5540810  83.6068050  22.1807850  30.5289000
  84.1273710  21.4656870  30.1630150  84.2536450  22.8193720  30.8289510
  88.1545890  23.6036250  45.8524070  88.5686910  23.7581330  46.7014490
  87.2196890  23.7291470  46.0149850  88.6268060  20.9432410  47.8563220
  89.2088830  20.1884730  47.7683700  88.8029830  21.4739850  47.0794700
  79.7440130  16.1029160  46.1680170  79.6497000  15.4849910  45.4431040
  79.1637520  16.8295450  45.9410080  82.5101570  14.6602400  43.2007560
  82.0618870  14.6826660  42.3553110  81.8766770  14.2621420  43.7977860
  82.9161120  23.5556730  43.8220000  83.3349230  24.3989460  43.6496240
  81.9969750  23.6928770  43.5926780  85.2525020  21.2872910  45.2057840
  85.3721230  20.6914050  45.9452680  86.1119020  21.3242600  44.7859140
  87.5912920  21.8410100  43.7820350  87.0648140  22.3652720  43.1785490
  87.9344260  22.4737490  44.4130080  79.9899310  19.2303470  30.2270060
  79.7888370  18.3670830  30.5883400  79.8191360  19.1436830  29.2891660
  80.7668540  29.8609740  44.9377730  80.2289630  30.5855800  44.6186430
  81.0202500  29.3840080  44.1475070  82.0193790  17.8294260  46.4633660
  82.6093480  17.5210110  47.1511480  81.2014030  17.3574010  46.6193560
  86.8387220  17.4460070  46.6966680  86.1502740  16.7841610  46.6316670
  87.5593240  16.9998340  47.1415140  87.4687620  14.0411700  32.7556940
  87.7489910  13.1979600  33.1116360  86.6953350  14.2734810  33.2695690
  78.7882110  16.3304090  30.2147940  79.0908010  16.3371520  29.3067090
  79.5276700  15.9801950  30.7115600  83.6230750  31.0960950  45.1964380
  83.5489450  31.9996090  45.5036750  82.7209590  30.7772850  45.1686450
  82.0067040  15.2738710  31.2004140  81.6589040  14.5962700  30.6206590
  82.2079810  14.8128220  32.0147530  84.1716080  30.2619460  32.8190740
  85.0666870  30.6004430  32.8409500  84.2033710  29.5398870  32.1915020
  77.8112240  25.6346510  31.0477740  78.2487110  26.1776180  31.7035320
  78.2959970  24.8093460  31.0574080  75.0258040  28.4235540  38.4998000
  75.3561050  27.5556600  38.2676640  75.4549040  28.6294060  39.3302960
  79.6219960  26.7544550  36.1599970  79.3215500  26.6309520  37.0603880
  79.5157450  25.8953140  35.7515700  75.5148250  29.2906130  41.2379630
  75.0779240  29.4706930  42.0703780  76.0825930  30.0480750  41.0961350
  75.3472680  21.8026360  37.5968510  74.6921520  21.5338000  36.9528210
  76.1850630  21.6930840  37.1470490  89.8362070  25.5175110  43.6233100
  89.0221910  25.9472270  43.8858890  90.2436270  26.1293520  43.0102150
  88.2963120  16.5967650  31.8187000  88.7148000  16.4098630  30.9783660
  87.9899180  15.7446700  32.1289930  76.3848610  22.1878930  42.1371850
  76.7521650  22.1006330  43.0167870  75.8159430  21.4245480  42.0378710
  75.9364610  19.0988020  46.0430270  75.0420660  19.0654780  46.3823980
  76.4762160  19.2974810  46.8081520  74.5610760  19.0125290  33.5393840
  73.6574840  19.2755490  33.3645500  75.0451380  19.2836460  32.7593800
  77.1037970  18.0690830  31.4488220  77.8129670  17.6474050  30.9635500
  76.3877910  18.1366060  30.8171570  76.7512130  14.1230160  30.4890870
  77.4740260  14.6639100  30.8072090  77.0236650  13.8493580  29.6132410
  76.4404320  13.3736350  40.3913490  77.0880510  12.8233730  39.9508650
  76.8606160  13.6279500  41.2129300  76.1936320  13.5292020  43.1338810
  75.8451140  13.9855840  43.8996990  75.8624020  12.6349150  43.2161240
  77.8000690  26.7011620  47.2992000  77.7570320  26.3304530  48.1806460
  77.9311700  27.6389190  47.4393820  81.5006720  28.2571210  42.9001720
  81.2598080  28.5245770  42.0132240  82.4409360  28.4276940  42.9552580
  83.7061140  14.7203900  46.6558230  83.6450030  15.3125730  47.4053640
  84.6461520  14.6129860  46.5108490  86.3435700  14.3773960  46.2950520
  86.9576110  14.6953250  45.6331600  86.8885260  13.8922550  46.9146380
  76.8656960  13.0568220  46.4089580  77.4139950  12.8756270  45.6455690
  76.9312270  12.2662330  46.9445890  77.6388720  29.6473870  44.4189780
  77.0449040  29.5158570  45.1579820  77.6312560  28.8112010  43.9531880
  87.0843740  12.9406100  42.6219810  86.2103580  13.2741210  42.4192740
  86.9754490  12.4679280  43.4471680  87.9915720  15.1476970  44.0061530
  87.6629080  14.3328730  43.6263260  88.9398020  15.1046780  43.8827220
  77.2700950  27.0132250  43.3697820  76.5435010  26.3937540  43.3023770
  77.3310100  27.4072860  42.4995900  80.8746050  29.2277250  40.1547230
  81.3911070  28.6164610  39.6295490  81.5243430  29.7306030  40.6458240
  83.6141550  30.1185740  40.9816210  83.9019360  29.8640040  40.1049220
  84.1264770  29.5663100  41.5721780  84.8318560  13.8575940  41.5612720
  84.0490350  14.3321440  41.8409480  84.5381490  12.9530770  41.4525900
  89.3839630  14.5599040  39.6061810  89.8247720  14.5044140  38.7583410
  89.1147220  15.4757050  39.6771990  75.5530950  30.3306640  36.5794580
  75.3852990  29.6977320  37.2776470  74.6865460  30.5366040  36.2288770
  76.1758970  14.1623420  34.0826440  76.9338330  14.2752300  33.5090470
  75.7136140  14.9992620  34.0369870  82.7172780  16.2762690  37.0728750
  81.9047290  15.9019580  36.7324630  83.2214420  15.5207770  37.3749940
  87.2197760  12.9405140  38.3111820  87.8227130  13.5125350  38.7860340
  86.4790750  13.5044580  38.0885720  77.1593650  29.0239870  34.0244720
  76.6341270  29.4047900  33.3206680  77.0838230  29.6490640  34.7454430
  78.5484120  14.6887470  32.6228410  79.0776880  13.9017270  32.4936360
  79.1812440  15.3678660  32.8563940  80.7421960  14.4262610  35.6773800
  80.1124700  13.7249920  35.8443930  80.2027100  15.1866740  35.4606960
  83.6813910  31.0401840  48.3484410  84.6081220  30.8046110  48.3920370
  83.6664340  31.8673840  47.8670440  80.8677520  13.7046590  48.1126290
  80.5861790  14.2080190  47.3487110  81.2497220  12.9068340  47.7468420
  79.7586620  30.9722250  32.8993970  80.4905440  30.6881530  32.3517860
  80.0180290  30.7335530  33.7893350  78.9201410  27.0886980  32.9040300
  78.2910290  27.5572080  33.4526130  79.0349240  26.2436200  33.3386490
  87.4692980  13.1200170  48.6906760  87.3558430  13.4394780  49.5858280
  88.2862720  13.5212680  48.3944040  86.3751130  21.1392640  19.0541500
  86.2945180  20.2247250  18.7833210  85.9615550  21.6359710  18.3481210
  84.5069170  22.9171660  20.9350770  83.7311270  22.4372100  21.2249340
  85.1582100  22.2377310  20.7606930  78.5235000  23.2291470  21.8126530
  77.6919880  22.9740180  22.2123040  79.1315980  23.3002240  22.5484450
  88.5276600  27.3231850  19.7149900  88.0658130  26.5519090  20.0437070
  89.3402150  27.3497920  20.2202350  78.5036260  27.2631560  22.0084550
  78.8064300  26.3729300  21.8294770  79.2479850  27.8201780  21.7806800
  76.9326950  18.1893360  15.5968920  76.0443650  18.5309330  15.4948800
  77.2168140  17.9893680  14.7049750  74.8959960  20.7899010  21.4808620
  75.4676070  20.0221210  21.4812260  74.8961500  21.0887770  20.5715230
  84.7539910  29.6089860  19.3353890  84.1351350  30.0647360  18.7648330
  85.6091690  29.7641320  18.9343590  83.9478160  25.5928850  20.9420930
  83.8786440  24.6518790  20.7810060  84.7098020  25.6830260  21.5143500
  76.1384830  16.1983370  23.2677550  75.9587670  15.3009120  23.5480310
  75.7364910  16.7455240  23.9424500  84.9783330  18.3999230  21.1689860
  85.3548150  17.5271110  21.0563530  84.8802840  18.7357930  20.2780300
  79.1088340  16.7724860  16.6307300  79.2155090  17.6728590  16.9376060
  78.1980700  16.7242830  16.3401950  88.7607450  15.8949670  18.1018200
  89.5817070  15.4046240  18.1443680  88.7941530  16.4847330  18.8550040
  76.7571500  18.6943870  21.8759890  77.4381610  18.9582240  22.4947290
  76.4419550  17.8544740  22.2097900  80.9496070  19.7411230  20.9632480
  81.4574290  20.2392200  21.6037500  81.4809310  18.9646430  20.7871840
  79.2332170  14.3809790  25.2295900  79.2350610  14.8982180  24.4241800
  78.4036480  13.9039970  25.2065830  85.6203260  24.4929100  16.7285800
  85.0020530  24.9578550  16.1648520  86.1326510  25.1856580  17.1455310
  80.4835020  24.0204970  23.4069400  80.1504400  24.6473890  24.0490470
  80.6601700  24.5466850  22.6271070  88.9968930  17.8350050  20.8745740
  88.2924500  18.1234940  21.4548850  89.3581090  18.6450160  20.5145300
  78.9147500  16.0919750  23.2366350  79.2564310  16.9361800  22.9420220
  77.9763310  16.2403490  23.3531690  79.6954120  25.9885770  25.2218580
  80.3128120  26.6636850  24.9403030  78.8347240  26.3973750  25.1306080
  74.9886460  25.1785630  14.1025430  74.6114440  25.6672730  13.3710330
  75.2459530  25.8510910  14.7331960  82.5975390  13.5802020  19.5610940
  82.9050370  13.0248910  18.8446440  81.6676090  13.7146480  19.3783930
  88.1490450  29.2969310  21.8518400  88.1617610  28.8931600  20.9840660
  87.5965670  30.0716600  21.7479830  89.4435870  26.0185530  16.9408570
  89.3332200  25.0759860  17.0657990  89.4404120  26.3801170  17.8271330
  87.5475890  24.1999150  23.1801010  87.9644680  23.9859260  22.3454470
  88.2715710  24.4571940  23.7509630  84.9856150  21.6450850  16.2971060
  84.0585430  21.5788230  16.5259530  85.1380970  22.5830980  16.1826300
  84.9725230  17.9167850  13.2938220  84.0328900  18.0781810  13.3790680
  85.2908490  18.6353530  12.7474210  89.0153440  23.2071150  16.8006310
  88.3965860  22.8690700  16.1532610  88.9977890  22.5630910  17.5085500
  88.4580000  19.3855690  24.2172120  88.0451180  20.2109400  24.4712110
  87.7255950  18.8000730  24.0248480  80.5912790  22.1715590  19.0790790
  80.1869790  21.4592840  18.5836690  80.6775910  21.8268830  19.9678830
  81.0594490  25.8583150  21.2430000  80.7622780  25.2528620  20.5637780
  82.0094310  25.8960460  21.1319360  79.3041410  18.9458800  22.8589830
  79.8556000  19.0554140  22.0843080  79.8184920  19.3196400  23.5745060
  89.1480100  29.4315020  24.9053100  88.6710660  30.2387210  24.7125710
  88.4641890  28.7793350  25.0579310  80.1512920  25.5964840  27.8937800
  79.2541450  25.8204810  28.1411200  80.1765790  25.7199780  26.9449200
  87.1918140  22.4457960  13.8079060  87.6311420  21.6080390  13.6616880
  87.9046560  23.0787360  13.8943200  78.9784140  22.4678160  26.4695170
  78.8391910  23.3400960  26.8382570  78.0965500  22.1250970  26.3243110
  85.3013520  27.3854030  17.7760300  85.7409430  28.1278360  17.3615690
  85.2400410  27.6280600  18.6999260  80.7764490  28.4099860  28.6780320
  80.7479920  28.8142810  27.8108750  80.6129460  27.4810220  28.5151920
  77.2917420  21.0660570  16.5797440  77.1715020  21.7922660  15.9678710
  76.9818310  20.2963480  16.1025350  74.9302790  24.2375710  22.3866080
  75.0083210  24.3724480  21.4421800  75.5444470  23.5291600  22.5794200
  76.1750420  25.9375900  18.7972260  75.7678500  26.0790490  17.9425860
  77.0663430  25.6536060  18.5943470  85.9929300  30.0867810  25.7039310
  86.5073970  29.9975820  26.5061740  85.1498380  30.4327510  25.9967220
  87.9683700  30.3723150  15.1323310  87.8084840  30.0826090  16.0305140
  87.8030410  29.5963280  14.5968540  80.4472080  30.1521680  16.9094930
  80.2714560  29.2357220  16.6962730  79.5927820  30.5108970  17.1492730
  87.6709830  27.8810710  13.6921310  86.9774990  27.8788000  13.0323590
  88.4132690  27.4570030  13.2615480  87.2359760  29.5073420  17.7669800
  87.6916710  28.7262800  18.0808420  87.5752280  30.2180240  18.3110980
  74.9862310  25.2789880  24.9260540  75.1493350  24.8095240  24.1079910
  75.4514760  24.7713440  25.5909380  79.7581080  14.4095640  19.9621110
  79.3149230  15.1905180  19.6305630  80.3166070  14.7325530  20.6692050
  84.0450890  17.2764160  25.5656430  83.5830260  17.4847180  26.3776370
  83.6429000  16.4623510  25.2627100  89.0455400  18.4973110  26.6953090
  88.1948990  18.1978860  27.0162160  88.8857190  18.7415120  25.7836910
  86.1405110  19.9974860  28.7951880  86.4658520  19.1638610  28.4554110
  86.9285440  20.5203380  28.9430210  82.8739900  14.0306340  14.8426940
  82.2494080  14.0266210  15.5680250  82.7870020  13.1637300  14.4462910
  81.7956980  14.9542970  21.8210710  82.0929310  15.8605800  21.7402730
  82.3442540  14.4661750  21.2070280  79.5495300  19.5329210  17.6902360
  79.3236220  19.3166380  18.5948980  78.7687830  19.9657670  17.3448330
  86.7793060  19.5392580  16.2893010  86.1801950  20.2628380  16.1056630
  87.3272670  19.4769360  15.5069460  81.9894510  20.4314790  28.3562630
  81.8938110  19.4909520  28.2063030  82.8326490  20.6529860  27.9610700
  85.3857930  18.1756120  18.3196290  85.7787500  18.4928320  17.5064980
  85.7474780  17.2968000  18.4340810  77.1205050  16.8428460  26.5096410
  76.7268440  17.6903670  26.7169190  76.4323450  16.2054830  26.7005050
  83.6950100  16.9263430  29.5793150  83.0048420  16.7335630  30.2139240
  84.4382400  17.2098070  30.1117450  74.4222100  14.7656920  20.5426490
  74.1335150  15.3359780  21.2551470  75.1667860  14.2861370  20.9057720
  74.6092330  18.7077040  11.7529210  74.5267000  19.6507800  11.8944200
  74.2575390  18.5651950  10.8741560  85.9713070  20.7661870  22.4147070
  85.2394190  21.2748680  22.7637170  85.5737410  19.9491850  22.1135850
  82.4090460  17.4416070  20.8199560  82.4126520  17.0006020  19.9704100
  83.3041580  17.7633400  20.9271380  78.2592840  17.3242560  19.7793770
  77.9192890  17.8017790  20.5360820  77.4970160  16.8707680  19.4194870
  82.4710610  18.4428150  13.8106320  82.5923430  18.4014630  14.7592140
  82.0859120  19.3052300  13.6553050  86.4338980  16.2195550  21.8270010
  86.4511720  16.6704200  22.6711860  86.1854560  15.3201190  22.0403450
  81.4832110  20.7529290  13.2089620  80.9149010  20.3047540  12.5825530
  82.1921110  21.1122070  12.6754770  89.8609730  13.6327730  27.6656390
  90.1855500  12.9017390  28.1914370  89.8966240  13.3141370  26.7637380
  76.5601290  24.6541310  27.0856350  76.1756080  24.0134980  27.6839310
  76.8713480  25.3577430  27.6551080  82.7098430  21.5017850  22.5664970
  83.0768560  21.0276420  23.3126310  82.5203490  22.3759420  22.9073310
  75.5738920  16.2461540  18.6958440  75.2885840  15.8817210  19.5337060
  75.5117780  15.5142000  18.0821580  80.4997800  20.5426490  24.8849180
  80.1954870  21.4218470  25.1099540  81.4544260  20.6026280  24.9206620
  79.0279590  24.7487480  15.4816030  78.2541850  24.2085100  15.3214750
  79.7574220  24.2294090  15.1433790  85.2477510  15.1390800  15.4171810
  84.4342120  14.6403970  15.3417120  85.0539460  15.9789050  15.0008160
  85.1686370  23.8161900  27.1611420  85.1023680  22.8957570  26.9069010
  84.5391510  23.9137340  27.8756060  87.9625900  19.5110450  13.7133970
  88.8505520  19.8227680  13.5385310  87.9330990  18.6382700  13.3214550
  79.0716990  24.4167860  19.1194840  79.5895660  23.6136120  19.0651730
  78.6201010  24.3547000  19.9611670  83.9586490  25.6834140  14.3922140
  84.3002190  26.4276370  13.8965460  83.1299200  25.9965260  14.7546970
  76.5561530  21.3829230  26.0320540  76.1976470  22.0483080  26.6193880
  76.2616090  20.5512780  26.4033160  79.7574650  21.8413470  28.9160090
  79.4574790  21.9870650  28.0187910  80.5285890  21.2818760  28.8233480
  85.1003100  26.6382470  26.9115220  85.1147640  25.7063430  26.6934130
  84.3928200  26.7242230  27.5504990  86.8413900  25.0049980  19.7567650
  87.1937720  24.4078110  19.0969020  85.9576230  24.6794210  19.9275900
  82.9277180  25.7647670  17.1638060  83.6148310  26.3116880  17.5445650
  82.1409600  26.3088400  17.1987670  75.0669580  21.3820490  12.6555140
  75.9364430  21.6645290  12.9391060  74.5759900  22.1956360  12.5403950
  82.2304390  22.7693700  16.7763420  82.6867170  23.5798950  17.0023610
  81.8792600  22.4516840  17.6081910  84.5337000  28.2800040  24.0055720
  85.1779220  28.4859420  24.6829140  84.8966440  27.5188440  23.5526570
  78.1316170  13.1131350  17.2485940  78.0030800  13.1049250  18.1970860
  77.3078190  13.4514440  16.8976950  85.8069080  26.2832390  22.7233170
  86.4491310  25.5825550  22.8365340  86.3318430  27.0630830  22.5430060
  89.6524800  26.5681010  12.4472310  89.4262380  25.8511450  13.0396950
  89.2621000  26.3193450  11.6094060  87.5806700  27.0827290  25.9269230
  87.9162940  27.6693980  26.6047150  86.6607040  26.9520000  26.1567020
  75.4340830  30.5947870  13.2216770  75.7938470  31.1937210  12.5674040
  75.2933170  31.1407760  13.9951800  75.1310100  14.8722470  26.7092640
  74.4168620  15.0719390  27.3145250  75.5505140  14.0962040  27.0807440
  89.2341050  24.4852950  14.1086470  88.9462750  24.9465640  14.8964350
  90.0293220  24.0250720  14.3770690  75.4182690  28.8602730  27.6959170
  75.5273810  27.9197470  27.5554560  74.7663250  29.1257480  27.0472900
  83.4095280  27.1318620  29.0957290  83.0892150  26.4127860  29.6402980
  82.7353640  27.8073690  29.1693350  81.4509450  27.9779070  14.0390440
  81.4419550  28.7108760  13.4234950  80.5307810  27.7310650  14.1317400
  77.0516090  23.1993960  14.7837200  76.4444040  23.9392860  14.7932500
  77.5265440  23.2893320  13.9575400  86.6248880  17.3644780  24.4594090
  86.9929700  16.5439990  24.7873660  85.7647080  17.4246670  24.8749740
  89.9910910  16.3201720  15.2681650  89.3624070  16.4247390  14.5539880
  89.4962830  16.5398500  16.0575530  84.4369050  28.0407310  12.7015630
  84.5381030  27.8371300  11.7717610  83.5370790  27.7865590  12.9063410
  81.9594940  18.5987670  16.6839530  81.2511090  19.0674010  17.1253140
  82.2439420  17.9409680  17.3184720  83.5850870  20.0184370  24.6832060
  84.0836120  20.4930190  25.3483910  83.7273820  19.0947890  24.8902090
  85.9910370  15.3238330  18.1235320  85.8678150  15.3424460  17.1744830
  86.9394930  15.3717270  18.2433720  83.0787160  30.5593630  17.3963300
  83.3328660  30.5215020  16.4742670  82.1299640  30.4326960  17.3891550
  80.1629960  16.9072750  14.0590240  81.0120490  17.3442900  13.9930430
  79.7961230  17.2193010  14.8862300  89.0839740  21.4785510  18.9721810
  88.1429880  21.4935740  19.1469500  89.3983810  20.6921470  19.4182110
  79.0621380  23.1605110  12.5325770  79.8284650  23.0486470  13.0951200
  79.1396070  22.4643080  11.8802540  77.7568140  20.5930180  13.2158660
  77.8371730  19.6457690  13.3276060  78.6487890  20.9237060  13.3219320
  78.5582850  30.7425570  20.3193200  79.2945330  30.1941030  20.5901770
  78.9423770  31.6081580  20.1799190  75.4428330  26.8099140  16.1934710
  74.5168110  27.0520280  16.1840120  75.9084760  27.6373400  16.0719460
  77.5641130  29.9271640  29.5078780  78.3653860  30.2483690  29.9214180
  77.0492950  29.5667220  30.2298690  81.6685160  29.9155880  12.1418770
  82.4613770  30.2044710  11.6900560  81.1489510  29.4848050  11.4631250
  86.4005760  26.0351510  29.4554190  85.7943920  26.0583110  28.7149940
  86.0959870  25.3034550  29.9921440  87.8306130  29.7631800  28.0663600
  88.7827880  29.6789820  28.0163840  87.6834350  30.4273510  28.7397390
  75.2838940  22.4145100  28.4514830  75.7877960  21.8352380  29.0231060
  74.5446360  22.6985330  28.9891200  82.1862560  25.1359290  12.0061120
  82.0813200  24.5211640  12.7322500  82.0186780  24.6125180  11.2224130
  82.3376880  23.8216090  27.9850350  81.5722550  24.3901090  27.9005020
  82.5192840  23.5292300  27.0918580  85.4265290  24.1979320  12.6103110
  84.8775390  24.6448620  13.2545850  86.0484550  23.6928570  13.1340780
  89.4800230  25.5521420  28.5425370  90.2209700  25.8897180  28.0392830
  88.7172910  25.7213480  27.9895140  77.3162020  20.5574690  29.3464900
  77.3567360  20.2588560  30.2550130  78.1707520  20.9582300  29.1872420
  81.0940410  23.1570240  14.5068410  81.5156830  22.9910110  15.3499800
  81.2191250  22.3470470  14.0123550  79.2567830  19.1366790  27.3139390
  78.7264290  18.6457740  26.6862730  79.9255900  19.5650990  26.7797320
  83.6068050  22.1807850  11.7545510  84.1273710  21.4656870  11.3886660
  84.2536450  22.8193720  12.0546020  88.1545890  23.6036250  27.0780580
  88.5686910  23.7581330  27.9271000  87.2196890  23.7291470  27.2406360
  88.6268060  20.9432410  29.0819730  89.2088830  20.1884730  28.9940210
  88.8029830  21.4739850  28.3051210  79.7440130  16.1029160  27.3936680
  79.6497000  15.4849910  26.6687550  79.1637520  16.8295450  27.1666590
  82.5101570  14.6602400  24.4264070  82.0618870  14.6826660  23.5809620
  81.8766770  14.2621420  25.0234370  82.9161120  23.5556730  25.0476510
  83.3349230  24.3989460  24.8752750  81.9969750  23.6928770  24.8183290
  85.2525020  21.2872910  26.4314350  85.3721230  20.6914050  27.1709190
  86.1119020  21.3242600  26.0115650  87.5912920  21.8410100  25.0076860
  87.0648140  22.3652720  24.4042000  87.9344260  22.4737490  25.6386590
  79.9899310  19.2303470  11.4526570  79.7888370  18.3670830  11.8139910
  79.8191360  19.1436830  10.5148170  80.7668540  29.8609740  26.1634240
  80.2289630  30.5855800  25.8442940  81.0202500  29.3840080  25.3731580
  82.0193790  17.8294260  27.6890170  82.6093480  17.5210110  28.3767990
  81.2014030  17.3574010  27.8450070  86.8387220  17.4460070  27.9223190
  86.1502740  16.7841610  27.8573180  87.5593240  16.9998340  28.3671650
  87.4687620  14.0411700  13.9813450  87.7489910  13.1979600  14.3372870
  86.6953350  14.2734810  14.4952200  78.7882110  16.3304090  11.4404450
  79.0908010  16.3371520  10.5323600  79.5276700  15.9801950  11.9372110
  83.6230750  31.0960950  26.4220890  83.5489450  31.9996090  26.7293260
  82.7209590  30.7772850  26.3942960  82.0067040  15.2738710  12.4260650
  81.6589040  14.5962700  11.8463100  82.2079810  14.8128220  13.2404040
  84.1716080  30.2619460  14.0447250  85.0666870  30.6004430  14.0666010
  84.2033710  29.5398870  13.4171530  77.8112240  25.6346510  12.2734250
  78.2487110  26.1776180  12.9291830  78.2959970  24.8093460  12.2830590
  75.0258040  28.4235540  19.7254510  75.3561050  27.5556600  19.4933150
  75.4549040  28.6294060  20.5559470  79.6219960  26.7544550  17.3856480
  79.3215500  26.6309520  18.2860390  79.5157450  25.8953140  16.9772210
  75.5148250  29.2906130  22.4636140  75.0779240  29.4706930  23.2960290
  76.0825930  30.0480750  22.3217860  75.3472680  21.8026360  18.8225020
  74.6921520  21.5338000  18.1784720  76.1850630  21.6930840  18.3727000
  89.8362070  25.5175110  24.8489610  89.0221910  25.9472270  25.1115400
  90.2436270  26.1293520  24.2358660  88.2963120  16.5967650  13.0443510
  88.7148000  16.4098630  12.2040170  87.9899180  15.7446700  13.3546440
  76.3848610  22.1878930  23.3628360  76.7521650  22.1006330  24.2424380
  75.8159430  21.4245480  23.2635220  75.9364610  19.0988020  27.2686780
  75.0420660  19.0654780  27.6080490  76.4762160  19.2974810  28.0338030
  74.5610760  19.0125290  14.7650350  73.6574840  19.2755490  14.5902010
  75.0451380  19.2836460  13.9850310  77.1037970  18.0690830  12.6744730
  77.8129670  17.6474050  12.1892010  76.3877910  18.1366060  12.0428080
  76.7512130  14.1230160  11.7147380  77.4740260  14.6639100  12.0328600
  77.0236650  13.8493580  10.8388920  76.4404320  13.3736350  21.6170000
  77.0880510  12.8233730  21.1765160  76.8606160  13.6279500  22.4385810
  76.1936320  13.5292020  24.3595320  75.8451140  13.9855840  25.1253500
  75.8624020  12.6349150  24.4417750  77.8000690  26.7011620  28.5248510
  77.7570320  26.3304530  29.4062970  77.9311700  27.6389190  28.6650330
  81.5006720  28.2571210  24.1258230  81.2598080  28.5245770  23.2388750
  82.4409360  28.4276940  24.1809090  83.7061140  14.7203900  27.8814740
  83.6450030  15.3125730  28.6310150  84.6461520  14.6129860  27.7365000
  86.3435700  14.3773960  27.5207030  86.9576110  14.6953250  26.8588110
  86.8885260  13.8922550  28.1402890  76.8656960  13.0568220  27.6346090
  77.4139950  12.8756270  26.8712200  76.9312270  12.2662330  28.1702400
  77.6388720  29.6473870  25.6446290  77.0449040  29.5158570  26.3836330
  77.6312560  28.8112010  25.1788390  87.0843740  12.9406100  23.8476320
  86.2103580  13.2741210  23.6449250  86.9754490  12.4679280  24.6728190
  87.9915720  15.1476970  25.2318040  87.6629080  14.3328730  24.8519770
  88.9398020  15.1046780  25.1083730  77.2700950  27.0132250  24.5954330
  76.5435010  26.3937540  24.5280280  77.3310100  27.4072860  23.7252410
  80.8746050  29.2277250  21.3803740  81.3911070  28.6164610  20.8552000
  81.5243430  29.7306030  21.8714750  83.6141550  30.1185740  22.2072720
  83.9019360  29.8640040  21.3305730  84.1264770  29.5663100  22.7978290
  84.8318560  13.8575940  22.7869230  84.0490350  14.3321440  23.0665990
  84.5381490  12.9530770  22.6782410  89.3839630  14.5599040  20.8318320
  89.8247720  14.5044140  19.9839920  89.1147220  15.4757050  20.9028500
  75.5530950  30.3306640  17.8051090  75.3852990  29.6977320  18.5032980
  74.6865460  30.5366040  17.4545280  76.1758970  14.1623420  15.3082950
  76.9338330  14.2752300  14.7346980  75.7136140  14.9992620  15.2626380
  82.7172780  16.2762690  18.2985260  81.9047290  15.9019580  17.9581140
  83.2214420  15.5207770  18.6006450  87.2197760  12.9405140  19.5368330
  87.8227130  13.5125350  20.0116850  86.4790750  13.5044580  19.3142230
  77.1593650  29.0239870  15.2501230  76.6341270  29.4047900  14.5463190
  77.0838230  29.6490640  15.9710940  78.5484120  14.6887470  13.8484920
  79.0776880  13.9017270  13.7192870  79.1812440  15.3678660  14.0820450
  80.7421960  14.4262610  16.9030310  80.1124700  13.7249920  17.0700440
  80.2027100  15.1866740  16.6863470  83.6813910  31.0401840  29.5740920
  84.6081220  30.8046110  29.6176880  83.6664340  31.8673840  29.0926950
  80.8677520  13.7046590  29.3382800  80.5861790  14.2080190  28.5743620
  81.2497220  12.9068340  28.9724930  79.7586620  30.9722250  14.1250480
  80.4905440  30.6881530  13.5774370  80.0180290  30.7335530  15.0149860
  78.9201410  27.0886980  14.1296810  78.2910290  27.5572080  14.6782640
  79.0349240  26.2436200  14.5643000  87.4692980  13.1200170  29.9163270
  87.3558430  13.4394780  30.8114790  88.2862720  13.5212680  29.6200550
  84.5069170  22.9171660   2.1607280  83.7311270  22.4372100   2.4505850
  85.1582100  22.2377310   1.9863440  78.5235000  23.2291470   3.0383040
  77.6919880  22.9740180   3.4379550  79.1315980  23.3002240   3.7740960
  78.5036260  27.2631560   3.2341060  78.8064300  26.3729300   3.0551280
  79.2479850  27.8201780   3.0063310  74.8959960  20.7899010   2.7065130
  75.4676070  20.0221210   2.7068770  74.8961500  21.0887770   1.7971740
  83.9478160  25.5928850   2.1677440  83.8786440  24.6518790   2.0066570
  84.7098020  25.6830260   2.7400010  76.1384830  16.1983370   4.4934060
  75.9587670  15.3009120   4.7736820  75.7364910  16.7455240   5.1681010
  84.9783330  18.3999230   2.3946370  85.3548150  17.5271110   2.2820040
  84.8802840  18.7357930   1.5036810  76.7571500  18.6943870   3.1016400
  77.4381610  18.9582240   3.7203800  76.4419550  17.8544740   3.4354410
  80.9496070  19.7411230   2.1888990  81.4574290  20.2392200   2.8294010
  81.4809310  18.9646430   2.0128350  79.2332170  14.3809790   6.4552410
  79.2350610  14.8982180   5.6498310  78.4036480  13.9039970   6.4322340
  80.4835020  24.0204970   4.6325910  80.1504400  24.6473890   5.2746980
  80.6601700  24.5466850   3.8527580  88.9968930  17.8350050   2.1002250
  88.2924500  18.1234940   2.6805360  89.3581090  18.6450160   1.7401810
  78.9147500  16.0919750   4.4622860  79.2564310  16.9361800   4.1676730
  77.9763310  16.2403490   4.5788200  79.6954120  25.9885770   6.4475090
  80.3128120  26.6636850   6.1659540  78.8347240  26.3973750   6.3562590
  88.1490450  29.2969310   3.0774910  88.1617610  28.8931600   2.2097170
  87.5965670  30.0716600   2.9736340  87.5475890  24.1999150   4.4057520
  87.9644680  23.9859260   3.5710980  88.2715710  24.4571940   4.9766140
  88.4580000  19.3855690   5.4428630  88.0451180  20.2109400   5.6968620
  87.7255950  18.8000730   5.2504990  81.0594490  25.8583150   2.4686510
  80.7622780  25.2528620   1.7894290  82.0094310  25.8960460   2.3575870
  79.3041410  18.9458800   4.0846340  79.8556000  19.0554140   3.3099590
  79.8184920  19.3196400   4.8001570  89.1480100  29.4315020   6.1309610
  88.6710660  30.2387210   5.9382220  88.4641890  28.7793350   6.2835820
  80.1512920  25.5964840   9.1194310  79.2541450  25.8204810   9.3667710
  80.1765790  25.7199780   8.1705710  78.9784140  22.4678160   7.6951680
  78.8391910  23.3400960   8.0639080  78.0965500  22.1250970   7.5499620
  80.7764490  28.4099860   9.9036830  80.7479920  28.8142810   9.0365260
  80.6129460  27.4810220   9.7408430  74.9302790  24.2375710   3.6122590
  75.0083210  24.3724480   2.6678310  75.5444470  23.5291600   3.8050710
  85.9929300  30.0867810   6.9295820  86.5073970  29.9975820   7.7318250
  85.1498380  30.4327510   7.2223730  74.9862310  25.2789880   6.1517050
  75.1493350  24.8095240   5.3336420  75.4514760  24.7713440   6.8165890
  84.0450890  17.2764160   6.7912940  83.5830260  17.4847180   7.6032880
  83.6429000  16.4623510   6.4883610  89.0455400  18.4973110   7.9209600
  88.1948990  18.1978860   8.2418670  88.8857190  18.7415120   7.0093420
  86.1405110  19.9974860  10.0208390  86.4658520  19.1638610   9.6810620
  86.9285440  20.5203380  10.1686720  81.7956980  14.9542970   3.0467220
  82.0929310  15.8605800   2.9659240  82.3442540  14.4661750   2.4326790
  81.9894510  20.4314790   9.5819140  81.8938110  19.4909520   9.4319540
  82.8326490  20.6529860   9.1867210  77.1205050  16.8428460   7.7352920
  76.7268440  17.6903670   7.9425700  76.4323450  16.2054830   7.9261560
  83.6950100  16.9263430  10.8049660  83.0048420  16.7335630  11.4395750
  84.4382400  17.2098070  11.3373960  74.4222100  14.7656920   1.7683000
  74.1335150  15.3359780   2.4807980  75.1667860  14.2861370   2.1314230
  85.9713070  20.7661870   3.6403580  85.2394190  21.2748680   3.9893680
  85.5737410  19.9491850   3.3392360  86.4338980  16.2195550   3.0526520
  86.4511720  16.6704200   3.8968370  86.1854560  15.3201190   3.2659960
  89.8609730  13.6327730   8.8912900  90.1855500  12.9017390   9.4170880
  89.8966240  13.3141370   7.9893890  76.5601290  24.6541310   8.3112860
  76.1756080  24.0134980   8.9095820  76.8713480  25.3577430   8.8807590
  82.7098430  21.5017850   3.7921480  83.0768560  21.0276420   4.5382820
  82.5203490  22.3759420   4.1329820  80.4997800  20.5426490   6.1105690
  80.1954870  21.4218470   6.3356050  81.4544260  20.6026280   6.1463130
  85.1686370  23.8161900   8.3867930  85.1023680  22.8957570   8.1325520
  84.5391510  23.9137340   9.1012570  76.5561530  21.3829230   7.2577050
  76.1976470  22.0483080   7.8450390  76.2616090  20.5512780   7.6289670
  79.7574650  21.8413470  10.1416600  79.4574790  21.9870650   9.2444420
  80.5285890  21.2818760  10.0489990  85.1003100  26.6382470   8.1371730
  85.1147640  25.7063430   7.9190640  84.3928200  26.7242230   8.7761500
  84.5337000  28.2800040   5.2312230  85.1779220  28.4859420   5.9085650
  84.8966440  27.5188440   4.7783080  85.8069080  26.2832390   3.9489680
  86.4491310  25.5825550   4.0621850  86.3318430  27.0630830   3.7686570
  87.5806700  27.0827290   7.1525740  87.9162940  27.6693980   7.8303660
  86.6607040  26.9520000   7.3823530  75.1310100  14.8722470   7.9349150
  74.4168620  15.0719390   8.5401760  75.5505140  14.0962040   8.3063950
  75.4182690  28.8602730   8.9215680  75.5273810  27.9197470   8.7811070
  74.7663250  29.1257480   8.2729410  83.4095280  27.1318620  10.3213800
  83.0892150  26.4127860  10.8659490  82.7353640  27.8073690  10.3949860
  86.6248880  17.3644780   5.6850600  86.9929700  16.5439990   6.0130170
  85.7647080  17.4246670   6.1006250  83.5850870  20.0184370   5.9088570
  84.0836120  20.4930190   6.5740420  83.7273820  19.0947890   6.1158600
  77.5641130  29.9271640  10.7335290  78.3653860  30.2483690  11.1470690
  77.0492950  29.5667220  11.4555200  86.4005760  26.0351510  10.6810700
  85.7943920  26.0583110   9.9406450  86.0959870  25.3034550  11.2177950
  87.8306130  29.7631800   9.2920110  88.7827880  29.6789820   9.2420350
  87.6834350  30.4273510   9.9653900  75.2838940  22.4145100   9.6771340
  75.7877960  21.8352380  10.2487570  74.5446360  22.6985330  10.2147710
  82.3376880  23.8216090   9.2106860  81.5722550  24.3901090   9.1261530
  82.5192840  23.5292300   8.3175090  89.4800230  25.5521420   9.7681880
  90.2209700  25.8897180   9.2649340  88.7172910  25.7213480   9.2151650
  77.3162020  20.5574690  10.5721410  77.3567360  20.2588560  11.4806640
  78.1707520  20.9582300  10.4128930  79.2567830  19.1366790   8.5395900
  78.7264290  18.6457740   7.9119240  79.9255900  19.5650990   8.0053830
  88.1545890  23.6036250   8.3037090  88.5686910  23.7581330   9.1527510
  87.2196890  23.7291470   8.4662870  88.6268060  20.9432410  10.3076240
  89.2088830  20.1884730  10.2196720  88.8029830  21.4739850   9.5307720
  79.7440130  16.1029160   8.6193190  79.6497000  15.4849910   7.8944060
  79.1637520  16.8295450   8.3923100  82.5101570  14.6602400   5.6520580
  82.0618870  14.6826660   4.8066130  81.8766770  14.2621420   6.2490880
  82.9161120  23.5556730   6.2733020  83.3349230  24.3989460   6.1009260
  81.9969750  23.6928770   6.0439800  85.2525020  21.2872910   7.6570860
  85.3721230  20.6914050   8.3965700  86.1119020  21.3242600   7.2372160
  87.5912920  21.8410100   6.2333370  87.0648140  22.3652720   5.6298510
  87.9344260  22.4737490   6.8643100  80.7668540  29.8609740   7.3890750
  80.2289630  30.5855800   7.0699450  81.0202500  29.3840080   6.5988090
  82.0193790  17.8294260   8.9146680  82.6093480  17.5210110   9.6024500
  81.2014030  17.3574010   9.0706580  86.8387220  17.4460070   9.1479700
  86.1502740  16.7841610   9.0829690  87.5593240  16.9998340   9.5928160
  83.6230750  31.0960950   7.6477400  83.5489450  31.9996090   7.9549770
  82.7209590  30.7772850   7.6199470  75.5148250  29.2906130   3.6892650
  75.0779240  29.4706930   4.5216800  76.0825930  30.0480750   3.5474370
  89.8362070  25.5175110   6.0746120  89.0221910  25.9472270   6.3371910
  90.2436270  26.1293520   5.4615170  76.3848610  22.1878930   4.5884870
  76.7521650  22.1006330   5.4680890  75.8159430  21.4245480   4.4891730
  75.9364610  19.0988020   8.4943290  75.0420660  19.0654780   8.8337000
  76.4762160  19.2974810   9.2594540  76.4404320  13.3736350   2.8426510
  77.0880510  12.8233730   2.4021670  76.8606160  13.6279500   3.6642320
  76.1936320  13.5292020   5.5851830  75.8451140  13.9855840   6.3510010
  75.8624020  12.6349150   5.6674260  77.8000690  26.7011620   9.7505020
  77.7570320  26.3304530  10.6319480  77.9311700  27.6389190   9.8906840
  81.5006720  28.2571210   5.3514740  81.2598080  28.5245770   4.4645260
  82.4409360  28.4276940   5.4065600  83.7061140  14.7203900   9.1071250
  83.6450030  15.3125730   9.8566660  84.6461520  14.6129860   8.9621510
  86.3435700  14.3773960   8.7463540  86.9576110  14.6953250   8.0844620
  86.8885260  13.8922550   9.3659400  76.8656960  13.0568220   8.8602600
  77.4139950  12.8756270   8.0968710  76.9312270  12.2662330   9.3958910
  77.6388720  29.6473870   6.8702800  77.0449040  29.5158570   7.6092840
  77.6312560  28.8112010   6.4044900  87.0843740  12.9406100   5.0732830
  86.2103580  13.2741210   4.8705760  86.9754490  12.4679280   5.8984700
  87.9915720  15.1476970   6.4574550  87.6629080  14.3328730   6.0776280
  88.9398020  15.1046780   6.3340240  77.2700950  27.0132250   5.8210840
  76.5435010  26.3937540   5.7536790  77.3310100  27.4072860   4.9508920
  80.8746050  29.2277250   2.6060250  81.3911070  28.6164610   2.0808510
  81.5243430  29.7306030   3.0971260  83.6141550  30.1185740   3.4329230
  83.9019360  29.8640040   2.5562240  84.1264770  29.5663100   4.0234800
  84.8318560  13.8575940   4.0125740  84.0490350  14.3321440   4.2922500
  84.5381490  12.9530770   3.9038920  83.6813910  31.0401840  10.7997430
  84.6081220  30.8046110  10.8433390  83.6664340  31.8673840  10.3183460
  80.8677520  13.7046590  10.5639310  80.5861790  14.2080190   9.8000130
  81.2497220  12.9068340  10.1981440  87.4692980  13.1200170  11.1419780
  87.3558430  13.4394780  12.0371300  88.2862720  13.5212680  10.8457060
  88.5276600   8.5488360  57.2636880  88.0658130   7.7775600  57.5924050
  89.3402150   8.5754430  57.7689330  84.7539910  10.8346370  56.8840870
  84.1351350  11.2903870  56.3135310  85.6091690  10.9897830  56.4830570
  85.6203260   5.7185610  54.2772780  85.0020530   6.1835060  53.7135500
  86.1326510   6.4113090  54.6942290  74.9886460   6.4042140  51.6512410
  74.6114440   6.8929240  50.9197310  75.2459530   7.0767420  52.2818940
  89.4435870   7.2442040  54.4895550  89.3332200   6.3016370  54.6144970
  89.4404120   7.6057680  55.3758310  84.9856150   2.8707360  53.8458040
  84.0585430   2.8044740  54.0746510  85.1380970   3.8087490  53.7313280
  89.0153440   4.4327660  54.3493290  88.3965860   4.0947210  53.7019590
  88.9977890   3.7887420  55.0572480  80.5912790   3.3972100  56.6277770
  80.1869790   2.6849350  56.1323670  80.6775910   3.0525340  57.5165810
  87.1918140   3.6714470  51.3566040  87.6311420   2.8336900  51.2103860
  87.9046560   4.3043870  51.4430180  85.3013520   8.6110540  55.3247280
  85.7409430   9.3534870  54.9102670  85.2400410   8.8537110  56.2486240
  77.2917420   2.2917080  54.1284420  77.1715020   3.0179170  53.5165690
  76.9818310   1.5219990  53.6512330  76.1750420   7.1632410  56.3459240
  75.7678500   7.3047000  55.4912840  77.0663430   6.8792570  56.1430450
  87.9683700  11.5979660  52.6810290  87.8084840  11.3082600  53.5792120
  87.8030410  10.8219790  52.1455520  80.4472080  11.3778190  54.4581910
  80.2714560  10.4613730  54.2449710  79.5927820  11.7365480  54.6979710
  87.6709830   9.1067220  51.2408290  86.9774990   9.1044510  50.5810570
  88.4132690   8.6826540  50.8102460  87.2359760  10.7329930  55.3156780
  87.6916710   9.9519310  55.6295400  87.5752280  11.4436750  55.8597960
  81.4832110   1.9785800  50.7576600  80.9149010   1.5304050  50.1312510
  82.1921110   2.3378580  50.2241750  79.0279590   5.9743990  53.0303010
  78.2541850   5.4341610  52.8701730  79.7574220   5.4550600  52.6920770
  79.0716990   5.6424370  56.6681820  79.5895660   4.8392630  56.6138710
  78.6201010   5.5803510  57.5098650  83.9586490   6.9090650  51.9409120
  84.3002190   7.6532880  51.4452440  83.1299200   7.2221770  52.3033950
  86.8413900   6.2306490  57.3054630  87.1937720   5.6334620  56.6456000
  85.9576230   5.9050720  57.4762880  82.9277180   6.9904180  54.7125040
  83.6148310   7.5373390  55.0932630  82.1409600   7.5344910  54.7474650
  75.0669580   2.6077000  50.2042120  75.9364430   2.8901800  50.4878040
  74.5759900   3.4212870  50.0890930  82.2304390   3.9950210  54.3250400
  82.6867170   4.8055460  54.5510590  81.8792600   3.6773350  55.1568890
  89.6524800   7.7937520  49.9959290  89.4262380   7.0767960  50.5883930
  89.2621000   7.5449960  49.1581040  75.4340830  11.8204380  50.7703750
  75.7938470  12.4193720  50.1161020  75.2933170  12.3664270  51.5438780
  89.2341050   5.7109460  51.6573450  88.9462750   6.1722150  52.4451330
  90.0293220   5.2507230  51.9257670  81.4509450   9.2035580  51.5877420
  81.4419550   9.9365270  50.9721930  80.5307810   8.9567160  51.6804380
  77.0516090   4.4250470  52.3324180  76.4444040   5.1649370  52.3419480
  77.5265440   4.5149830  51.5062380  84.4369050   9.2663820  50.2502610
  84.5381030   9.0627810  49.3204590  83.5370790   9.0122100  50.4550390
  83.0787160  11.7850140  54.9450280  83.3328660  11.7471530  54.0229650
  82.1299640  11.6583470  54.9378530  89.0839740   2.7042020  56.5208790
  88.1429880   2.7192250  56.6956480  89.3983810   1.9177980  56.9669090
  79.0621380   4.3861620  50.0812750  79.8284650   4.2742980  50.6438180
  79.1396070   3.6899590  49.4289520  78.5582850  11.9682080  57.8680180
  79.2945330  11.4197540  58.1388750  78.9423770  12.8338090  57.7286170
  75.4428330   8.0355650  53.7421690  74.5168110   8.2776790  53.7327100
  75.9084760   8.8629910  53.6206440  81.6685160  11.1412390  49.6905750
  82.4613770  11.4301220  49.2387540  81.1489510  10.7104560  49.0118230
  82.1862560   6.3615800  49.5548100  82.0813200   5.7468150  50.2809480
  82.0186780   5.8381690  48.7711110  85.4265290   5.4235830  50.1590090
  84.8775390   5.8705130  50.8032830  86.0484550   4.9185080  50.6827760
  81.0940410   4.3826750  52.0555390  81.5156830   4.2166620  52.8986780
  81.2191250   3.5726980  51.5610530  83.6068050   3.4064360  49.3032490
  84.1273710   2.6913380  48.9373640  84.2536450   4.0450230  49.6033000
  84.1716080  11.4875970  51.5934230  85.0666870  11.8260940  51.6152990
  84.2033710  10.7655380  50.9658510  77.8112240   6.8603020  49.8221230
  78.2487110   7.4032690  50.4778810  78.2959970   6.0349970  49.8317570
  75.0258040   9.6492050  57.2741490  75.3561050   8.7813110  57.0420130
  75.4549040   9.8550570  58.1046450  79.6219960   7.9801060  54.9343460
  79.3215500   7.8566030  55.8347370  79.5157450   7.1209650  54.5259190
  75.3472680   3.0282870  56.3712000  74.6921520   2.7594510  55.7271700
  76.1850630   2.9187350  55.9213980  75.5530950  11.5563150  55.3538070
  75.3852990  10.9233830  56.0519960  74.6865460  11.7622550  55.0032260
  77.1593650  10.2496380  52.7988210  76.6341270  10.6304410  52.0950170
  77.0838230  10.8747150  53.5197920  79.7586620  12.1978760  51.6737460
  80.4905440  11.9138040  51.1261350  80.0180290  11.9592040  52.5636840
  78.9201410   8.3143490  51.6783790  78.2910290   8.7828590  52.2269620
  79.0349240   7.4692710  52.1129980  84.5069170   4.1428170  39.7094260
  83.7311270   3.6628610  39.9992830  85.1582100   3.4633820  39.5350420
  78.5235000   4.4547980  40.5870020  77.6919880   4.1996690  40.9866530
  79.1315980   4.5258750  41.3227940  88.5276600   8.5488360  38.4893390
  88.0658130   7.7775600  38.8180560  89.3402150   8.5754430  38.9945840
  78.5036260   8.4888070  40.7828040  78.8064300   7.5985810  40.6038260
  79.2479850   9.0458290  40.5550290  84.7539910  10.8346370  38.1097380
  84.1351350  11.2903870  37.5391820  85.6091690  10.9897830  37.7087080
  83.9478160   6.8185360  39.7164420  83.8786440   5.8775300  39.5553550
  84.7098020   6.9086770  40.2886990  85.6203260   5.7185610  35.5029290
  85.0020530   6.1835060  34.9392010  86.1326510   6.4113090  35.9198800
  80.4835020   5.2461480  42.1812890  80.1504400   5.8730400  42.8233960
  80.6601700   5.7723360  41.4014560  79.6954120   7.2142280  43.9962070
  80.3128120   7.8893360  43.7146520  78.8347240   7.6230260  43.9049570
  74.9886460   6.4042140  32.8768920  74.6114440   6.8929240  32.1453820
  75.2459530   7.0767420  33.5075450  88.1490450  10.5225820  40.6261890
  88.1617610  10.1188110  39.7584150  87.5965670  11.2973110  40.5223320
  89.4435870   7.2442040  35.7152060  89.3332200   6.3016370  35.8401480
  89.4404120   7.6057680  36.6014820  87.5475890   5.4255660  41.9544500
  87.9644680   5.2115770  41.1197960  88.2715710   5.6828450  42.5253120
  84.9856150   2.8707360  35.0714550  84.0585430   2.8044740  35.3003020
  85.1380970   3.8087490  34.9569790  89.0153440   4.4327660  35.5749800
  88.3965860   4.0947210  34.9276100  88.9977890   3.7887420  36.2828990
  80.5912790   3.3972100  37.8534280  80.1869790   2.6849350  37.3580180
  80.6775910   3.0525340  38.7422320  81.0594490   7.0839660  40.0173490
  80.7622780   6.4785130  39.3381270  82.0094310   7.1216970  39.9062850
  89.1480100  10.6571530  43.6796590  88.6710660  11.4643720  43.4869200
  88.4641890  10.0049860  43.8322800  80.1512920   6.8221350  46.6681290
  79.2541450   7.0461320  46.9154690  80.1765790   6.9456290  45.7192690
  87.1918140   3.6714470  32.5822550  87.6311420   2.8336900  32.4360370
  87.9046560   4.3043870  32.6686690  78.9784140   3.6934670  45.2438660
  78.8391910   4.5657470  45.6126060  78.0965500   3.3507480  45.0986600
  85.3013520   8.6110540  36.5503790  85.7409430   9.3534870  36.1359180
  85.2400410   8.8537110  37.4742750  80.7764490   9.6356370  47.4523810
  80.7479920  10.0399320  46.5852240  80.6129460   8.7066730  47.2895410
  77.2917420   2.2917080  35.3540930  77.1715020   3.0179170  34.7422200
  76.9818310   1.5219990  34.8768840  74.9302790   5.4632220  41.1609570
  75.0083210   5.5980990  40.2165290  75.5444470   4.7548110  41.3537690
  76.1750420   7.1632410  37.5715750  75.7678500   7.3047000  36.7169350
  77.0663430   6.8792570  37.3686960  85.9929300  11.3124320  44.4782800
  86.5073970  11.2232330  45.2805230  85.1498380  11.6584020  44.7710710
  87.9683700  11.5979660  33.9066800  87.8084840  11.3082600  34.8048630
  87.8030410  10.8219790  33.3712030  80.4472080  11.3778190  35.6838420
  80.2714560  10.4613730  35.4706220  79.5927820  11.7365480  35.9236220
  87.6709830   9.1067220  32.4664800  86.9774990   9.1044510  31.8067080
  88.4132690   8.6826540  32.0358970  87.2359760  10.7329930  36.5413290
  87.6916710   9.9519310  36.8551910  87.5752280  11.4436750  37.0854470
  74.9862310   6.5046390  43.7004030  75.1493350   6.0351750  42.8823400
  75.4514760   5.9969950  44.3652870  81.4832110   1.9785800  31.9833110
  80.9149010   1.5304050  31.3569020  82.1921110   2.3378580  31.4498260
  76.5601290   5.8797820  45.8599840  76.1756080   5.2391490  46.4582800
  76.8713480   6.5833940  46.4294570  82.7098430   2.7274360  41.3408460
  83.0768560   2.2532930  42.0869800  82.5203490   3.6015930  41.6816800
  80.4997800   1.7683000  43.6592670  80.1954870   2.6474980  43.8843030
  81.4544260   1.8282790  43.6950110  79.0279590   5.9743990  34.2559520
  78.2541850   5.4341610  34.0958240  79.7574220   5.4550600  33.9177280
  85.1686370   5.0418410  45.9354910  85.1023680   4.1214080  45.6812500
  84.5391510   5.1393850  46.6499550  79.0716990   5.6424370  37.8938330
  79.5895660   4.8392630  37.8395220  78.6201010   5.5803510  38.7355160
  83.9586490   6.9090650  33.1665630  84.3002190   7.6532880  32.6708950
  83.1299200   7.2221770  33.5290460  76.5561530   2.6085740  44.8064030
  76.1976470   3.2739590  45.3937370  76.2616090   1.7769290  45.1776650
  79.7574650   3.0669980  47.6903580  79.4574790   3.2127160  46.7931400
  80.5285890   2.5075270  47.5976970  85.1003100   7.8638980  45.6858710
  85.1147640   6.9319940  45.4677620  84.3928200   7.9498740  46.3248480
  86.8413900   6.2306490  38.5311140  87.1937720   5.6334620  37.8712510
  85.9576230   5.9050720  38.7019390  82.9277180   6.9904180  35.9381550
  83.6148310   7.5373390  36.3189140  82.1409600   7.5344910  35.9731160
  75.0669580   2.6077000  31.4298630  75.9364430   2.8901800  31.7134550
  74.5759900   3.4212870  31.3147440  82.2304390   3.9950210  35.5506910
  82.6867170   4.8055460  35.7767100  81.8792600   3.6773350  36.3825400
  84.5337000   9.5056550  42.7799210  85.1779220   9.7115930  43.4572630
  84.8966440   8.7444950  42.3270060  85.8069080   7.5088900  41.4976660
  86.4491310   6.8082060  41.6108830  86.3318430   8.2887340  41.3173550
  89.6524800   7.7937520  31.2215800  89.4262380   7.0767960  31.8140440
  89.2621000   7.5449960  30.3837550  87.5806700   8.3083800  44.7012720
  87.9162940   8.8950490  45.3790640  86.6607040   8.1776510  44.9310510
  75.4340830  11.8204380  31.9960260  75.7938470  12.4193720  31.3417530
  75.2933170  12.3664270  32.7695290  89.2341050   5.7109460  32.8829960
  88.9462750   6.1722150  33.6707840  90.0293220   5.2507230  33.1514180
  75.4182690  10.0859240  46.4702660  75.5273810   9.1453980  46.3298050
  74.7663250  10.3513990  45.8216390  83.4095280   8.3575130  47.8700780
  83.0892150   7.6384370  48.4146470  82.7353640   9.0330200  47.9436840
  81.4509450   9.2035580  32.8133930  81.4419550   9.9365270  32.1978440
  80.5307810   8.9567160  32.9060890  77.0516090   4.4250470  33.5580690
  76.4444040   5.1649370  33.5675990  77.5265440   4.5149830  32.7318890
  84.4369050   9.2663820  31.4759120  84.5381030   9.0627810  30.5461100
  83.5370790   9.0122100  31.6806900  83.0787160  11.7850140  36.1706790
  83.3328660  11.7471530  35.2486160  82.1299640  11.6583470  36.1635040
  89.0839740   2.7042020  37.7465300  88.1429880   2.7192250  37.9212990
  89.3983810   1.9177980  38.1925600  79.0621380   4.3861620  31.3069260
  79.8284650   4.2742980  31.8694690  79.1396070   3.6899590  30.6546030
  78.5582850  11.9682080  39.0936690  79.2945330  11.4197540  39.3645260
  78.9423770  12.8338090  38.9542680  75.4428330   8.0355650  34.9678200
  74.5168110   8.2776790  34.9583610  75.9084760   8.8629910  34.8462950
  77.5641130  11.1528150  48.2822270  78.3653860  11.4740200  48.6957670
  77.0492950  10.7923730  49.0042180  81.6685160  11.1412390  30.9162260
  82.4613770  11.4301220  30.4644050  81.1489510  10.7104560  30.2374740
  86.4005760   7.2608020  48.2297680  85.7943920   7.2839620  47.4893430
  86.0959870   6.5291060  48.7664930  87.8306130  10.9888310  46.8407090
  88.7827880  10.9046330  46.7907330  87.6834350  11.6530020  47.5140880
  75.2838940   3.6401610  47.2258320  75.7877960   3.0608890  47.7974550
  74.5446360   3.9241840  47.7634690  82.1862560   6.3615800  30.7804610
  82.0813200   5.7468150  31.5065990  82.0186780   5.8381690  29.9967620
  82.3376880   5.0472600  46.7593840  81.5722550   5.6157600  46.6748510
  82.5192840   4.7548810  45.8662070  85.4265290   5.4235830  31.3846600
  84.8775390   5.8705130  32.0289340  86.0484550   4.9185080  31.9084270
  89.4800230   6.7777930  47.3168860  90.2209700   7.1153690  46.8136320
  88.7172910   6.9469990  46.7638630  77.3162020   1.7831200  48.1208390
  77.3567360   1.4845070  49.0293620  78.1707520   2.1838810  47.9615910
  81.0940410   4.3826750  33.2811900  81.5156830   4.2166620  34.1243290
  81.2191250   3.5726980  32.7867040  83.6068050   3.4064360  30.5289000
  84.1273710   2.6913380  30.1630150  84.2536450   4.0450230  30.8289510
  88.1545890   4.8292760  45.8524070  88.5686910   4.9837840  46.7014490
  87.2196890   4.9547980  46.0149850  82.9161120   4.7813240  43.8220000
  83.3349230   5.6245970  43.6496240  81.9969750   4.9185280  43.5926780
  85.2525020   2.5129420  45.2057840  85.3721230   1.9170560  45.9452680
  86.1119020   2.5499110  44.7859140  87.5912920   3.0666610  43.7820350
  87.0648140   3.5909230  43.1785490  87.9344260   3.6994000  44.4130080
  80.7668540  11.0866250  44.9377730  80.2289630  11.8112310  44.6186430
  81.0202500  10.6096590  44.1475070  83.6230750  12.3217460  45.1964380
  83.5489450  13.2252600  45.5036750  82.7209590  12.0029360  45.1686450
  84.1716080  11.4875970  32.8190740  85.0666870  11.8260940  32.8409500
  84.2033710  10.7655380  32.1915020  77.8112240   6.8603020  31.0477740
  78.2487110   7.4032690  31.7035320  78.2959970   6.0349970  31.0574080
  75.0258040   9.6492050  38.4998000  75.3561050   8.7813110  38.2676640
  75.4549040   9.8550570  39.3302960  79.6219960   7.9801060  36.1599970
  79.3215500   7.8566030  37.0603880  79.5157450   7.1209650  35.7515700
  75.5148250  10.5162640  41.2379630  75.0779240  10.6963440  42.0703780
  76.0825930  11.2737260  41.0961350  75.3472680   3.0282870  37.5968510
  74.6921520   2.7594510  36.9528210  76.1850630   2.9187350  37.1470490
  89.8362070   6.7431620  43.6233100  89.0221910   7.1728780  43.8858890
  90.2436270   7.3550030  43.0102150  76.3848610   3.4135440  42.1371850
  76.7521650   3.3262840  43.0167870  75.8159430   2.6501990  42.0378710
  77.8000690   7.9268130  47.2992000  77.7570320   7.5561040  48.1806460
  77.9311700   8.8645700  47.4393820  81.5006720   9.4827720  42.9001720
  81.2598080   9.7502280  42.0132240  82.4409360   9.6533450  42.9552580
  77.6388720  10.8730380  44.4189780  77.0449040  10.7415080  45.1579820
  77.6312560  10.0368520  43.9531880  77.2700950   8.2388760  43.3697820
  76.5435010   7.6194050  43.3023770  77.3310100   8.6329370  42.4995900
  80.8746050  10.4533760  40.1547230  81.3911070   9.8421120  39.6295490
  81.5243430  10.9562540  40.6458240  83.6141550  11.3442250  40.9816210
  83.9019360  11.0896550  40.1049220  84.1264770  10.7919610  41.5721780
  75.5530950  11.5563150  36.5794580  75.3852990  10.9233830  37.2776470
  74.6865460  11.7622550  36.2288770  77.1593650  10.2496380  34.0244720
  76.6341270  10.6304410  33.3206680  77.0838230  10.8747150  34.7454430
  83.6813910  12.2658350  48.3484410  84.6081220  12.0302620  48.3920370
  83.6664340  13.0930350  47.8670440  79.7586620  12.1978760  32.8993970
  80.4905440  11.9138040  32.3517860  80.0180290  11.9592040  33.7893350
  78.9201410   8.3143490  32.9040300  78.2910290   8.7828590  33.4526130
  79.0349240   7.4692710  33.3386490  84.5069170   4.1428170  20.9350770
  83.7311270   3.6628610  21.2249340  85.1582100   3.4633820  20.7606930
  78.5235000   4.4547980  21.8126530  77.6919880   4.1996690  22.2123040
  79.1315980   4.5258750  22.5484450  88.5276600   8.5488360  19.7149900
  88.0658130   7.7775600  20.0437070  89.3402150   8.5754430  20.2202350
  78.5036260   8.4888070  22.0084550  78.8064300   7.5985810  21.8294770
  79.2479850   9.0458290  21.7806800  84.7539910  10.8346370  19.3353890
  84.1351350  11.2903870  18.7648330  85.6091690  10.9897830  18.9343590
  83.9478160   6.8185360  20.9420930  83.8786440   5.8775300  20.7810060
  84.7098020   6.9086770  21.5143500  85.6203260   5.7185610  16.7285800
  85.0020530   6.1835060  16.1648520  86.1326510   6.4113090  17.1455310
  80.4835020   5.2461480  23.4069400  80.1504400   5.8730400  24.0490470
  80.6601700   5.7723360  22.6271070  79.6954120   7.2142280  25.2218580
  80.3128120   7.8893360  24.9403030  78.8347240   7.6230260  25.1306080
  74.9886460   6.4042140  14.1025430  74.6114440   6.8929240  13.3710330
  75.2459530   7.0767420  14.7331960  88.1490450  10.5225820  21.8518400
  88.1617610  10.1188110  20.9840660  87.5965670  11.2973110  21.7479830
  89.4435870   7.2442040  16.9408570  89.3332200   6.3016370  17.0657990
  89.4404120   7.6057680  17.8271330  87.5475890   5.4255660  23.1801010
  87.9644680   5.2115770  22.3454470  88.2715710   5.6828450  23.7509630
  84.9856150   2.8707360  16.2971060  84.0585430   2.8044740  16.5259530
  85.1380970   3.8087490  16.1826300  89.0153440   4.4327660  16.8006310
  88.3965860   4.0947210  16.1532610  88.9977890   3.7887420  17.5085500
  80.5912790   3.3972100  19.0790790  80.1869790   2.6849350  18.5836690
  80.6775910   3.0525340  19.9678830  81.0594490   7.0839660  21.2430000
  80.7622780   6.4785130  20.5637780  82.0094310   7.1216970  21.1319360
  89.1480100  10.6571530  24.9053100  88.6710660  11.4643720  24.7125710
  88.4641890  10.0049860  25.0579310  80.1512920   6.8221350  27.8937800
  79.2541450   7.0461320  28.1411200  80.1765790   6.9456290  26.9449200
  87.1918140   3.6714470  13.8079060  87.6311420   2.8336900  13.6616880
  87.9046560   4.3043870  13.8943200  78.9784140   3.6934670  26.4695170
  78.8391910   4.5657470  26.8382570  78.0965500   3.3507480  26.3243110
  85.3013520   8.6110540  17.7760300  85.7409430   9.3534870  17.3615690
  85.2400410   8.8537110  18.6999260  80.7764490   9.6356370  28.6780320
  80.7479920  10.0399320  27.8108750  80.6129460   8.7066730  28.5151920
  77.2917420   2.2917080  16.5797440  77.1715020   3.0179170  15.9678710
  76.9818310   1.5219990  16.1025350  74.9302790   5.4632220  22.3866080
  75.0083210   5.5980990  21.4421800  75.5444470   4.7548110  22.5794200
  76.1750420   7.1632410  18.7972260  75.7678500   7.3047000  17.9425860
  77.0663430   6.8792570  18.5943470  85.9929300  11.3124320  25.7039310
  86.5073970  11.2232330  26.5061740  85.1498380  11.6584020  25.9967220
  87.9683700  11.5979660  15.1323310  87.8084840  11.3082600  16.0305140
  87.8030410  10.8219790  14.5968540  80.4472080  11.3778190  16.9094930
  80.2714560  10.4613730  16.6962730  79.5927820  11.7365480  17.1492730
  87.6709830   9.1067220  13.6921310  86.9774990   9.1044510  13.0323590
  88.4132690   8.6826540  13.2615480  87.2359760  10.7329930  17.7669800
  87.6916710   9.9519310  18.0808420  87.5752280  11.4436750  18.3110980
  74.9862310   6.5046390  24.9260540  75.1493350   6.0351750  24.1079910
  75.4514760   5.9969950  25.5909380  81.4832110   1.9785800  13.2089620
  80.9149010   1.5304050  12.5825530  82.1921110   2.3378580  12.6754770
  76.5601290   5.8797820  27.0856350  76.1756080   5.2391490  27.6839310
  76.8713480   6.5833940  27.6551080  82.7098430   2.7274360  22.5664970
  83.0768560   2.2532930  23.3126310  82.5203490   3.6015930  22.9073310
  80.4997800   1.7683000  24.8849180  80.1954870   2.6474980  25.1099540
  81.4544260   1.8282790  24.9206620  79.0279590   5.9743990  15.4816030
  78.2541850   5.4341610  15.3214750  79.7574220   5.4550600  15.1433790
  85.1686370   5.0418410  27.1611420  85.1023680   4.1214080  26.9069010
  84.5391510   5.1393850  27.8756060  79.0716990   5.6424370  19.1194840
  79.5895660   4.8392630  19.0651730  78.6201010   5.5803510  19.9611670
  83.9586490   6.9090650  14.3922140  84.3002190   7.6532880  13.8965460
  83.1299200   7.2221770  14.7546970  76.5561530   2.6085740  26.0320540
  76.1976470   3.2739590  26.6193880  76.2616090   1.7769290  26.4033160
  79.7574650   3.0669980  28.9160090  79.4574790   3.2127160  28.0187910
  80.5285890   2.5075270  28.8233480  85.1003100   7.8638980  26.9115220
  85.1147640   6.9319940  26.6934130  84.3928200   7.9498740  27.5504990
  86.8413900   6.2306490  19.7567650  87.1937720   5.6334620  19.0969020
  85.9576230   5.9050720  19.9275900  82.9277180   6.9904180  17.1638060
  83.6148310   7.5373390  17.5445650  82.1409600   7.5344910  17.1987670
  75.0669580   2.6077000  12.6555140  75.9364430   2.8901800  12.9391060
  74.5759900   3.4212870  12.5403950  82.2304390   3.9950210  16.7763420
  82.6867170   4.8055460  17.0023610  81.8792600   3.6773350  17.6081910
  84.5337000   9.5056550  24.0055720  85.1779220   9.7115930  24.6829140
  84.8966440   8.7444950  23.5526570  85.8069080   7.5088900  22.7233170
  86.4491310   6.8082060  22.8365340  86.3318430   8.2887340  22.5430060
  89.6524800   7.7937520  12.4472310  89.4262380   7.0767960  13.0396950
  89.2621000   7.5449960  11.6094060  87.5806700   8.3083800  25.9269230
  87.9162940   8.8950490  26.6047150  86.6607040   8.1776510  26.1567020
  75.4340830  11.8204380  13.2216770  75.7938470  12.4193720  12.5674040
  75.2933170  12.3664270  13.9951800  89.2341050   5.7109460  14.1086470
  88.9462750   6.1722150  14.8964350  90.0293220   5.2507230  14.3770690
  75.4182690  10.0859240  27.6959170  75.5273810   9.1453980  27.5554560
  74.7663250  10.3513990  27.0472900  83.4095280   8.3575130  29.0957290
  83.0892150   7.6384370  29.6402980  82.7353640   9.0330200  29.1693350
  81.4509450   9.2035580  14.0390440  81.4419550   9.9365270  13.4234950
  80.5307810   8.9567160  14.1317400  77.0516090   4.4250470  14.7837200
  76.4444040   5.1649370  14.7932500  77.5265440   4.5149830  13.9575400
  84.4369050   9.2663820  12.7015630  84.5381030   9.0627810  11.7717610
  83.5370790   9.0122100  12.9063410  83.0787160  11.7850140  17.3963300
  83.3328660  11.7471530  16.4742670  82.1299640  11.6583470  17.3891550
  89.0839740   2.7042020  18.9721810  88.1429880   2.7192250  19.1469500
  89.3983810   1.9177980  19.4182110  79.0621380   4.3861620  12.5325770
  79.8284650   4.2742980  13.0951200  79.1396070   3.6899590  11.8802540
  78.5582850  11.9682080  20.3193200  79.2945330  11.4197540  20.5901770
  78.9423770  12.8338090  20.1799190  75.4428330   8.0355650  16.1934710
  74.5168110   8.2776790  16.1840120  75.9084760   8.8629910  16.0719460
  77.5641130  11.1528150  29.5078780  78.3653860  11.4740200  29.9214180
  77.0492950  10.7923730  30.2298690  81.6685160  11.1412390  12.1418770
  82.4613770  11.4301220  11.6900560  81.1489510  10.7104560  11.4631250
  86.4005760   7.2608020  29.4554190  85.7943920   7.2839620  28.7149940
  86.0959870   6.5291060  29.9921440  87.8306130  10.9888310  28.0663600
  88.7827880  10.9046330  28.0163840  87.6834350  11.6530020  28.7397390
  75.2838940   3.6401610  28.4514830  75.7877960   3.0608890  29.0231060
  74.5446360   3.9241840  28.9891200  82.1862560   6.3615800  12.0061120
  82.0813200   5.7468150  12.7322500  82.0186780   5.8381690  11.2224130
  82.3376880   5.0472600  27.9850350  81.5722550   5.6157600  27.9005020
  82.5192840   4.7548810  27.0918580  85.4265290   5.4235830  12.6103110
  84.8775390   5.8705130  13.2545850  86.0484550   4.9185080  13.1340780
  89.4800230   6.7777930  28.5425370  90.2209700   7.1153690  28.0392830
  88.7172910   6.9469990  27.9895140  77.3162020   1.7831200  29.3464900
  77.3567360   1.4845070  30.2550130  78.1707520   2.1838810  29.1872420
  81.0940410   4.3826750  14.5068410  81.5156830   4.2166620  15.3499800
  81.2191250   3.5726980  14.0123550  83.6068050   3.4064360  11.7545510
  84.1273710   2.6913380  11.3886660  84.2536450   4.0450230  12.0546020
  88.1545890   4.8292760  27.0780580  88.5686910   4.9837840  27.9271000
  87.2196890   4.9547980  27.2406360  82.9161120   4.7813240  25.0476510
  83.3349230   5.6245970  24.8752750  81.9969750   4.9185280  24.8183290
  85.2525020   2.5129420  26.4314350  85.3721230   1.9170560  27.1709190
  86.1119020   2.5499110  26.0115650  87.5912920   3.0666610  25.0076860
  87.0648140   3.5909230  24.4042000  87.9344260   3.6994000  25.6386590
  80.7668540  11.0866250  26.1634240  80.2289630  11.8112310  25.8442940
  81.0202500  10.6096590  25.3731580  83.6230750  12.3217460  26.4220890
  83.5489450  13.2252600  26.7293260  82.7209590  12.0029360  26.3942960
  84.1716080  11.4875970  14.0447250  85.0666870  11.8260940  14.0666010
  84.2033710  10.7655380  13.4171530  77.8112240   6.8603020  12.2734250
  78.2487110   7.4032690  12.9291830  78.2959970   6.0349970  12.2830590
  75.0258040   9.6492050  19.7254510  75.3561050   8.7813110  19.4933150
  75.4549040   9.8550570  20.5559470  79.6219960   7.9801060  17.3856480
  79.3215500   7.8566030  18.2860390  79.5157450   7.1209650  16.9772210
  75.5148250  10.5162640  22.4636140  75.0779240  10.6963440  23.2960290
  76.0825930  11.2737260  22.3217860  75.3472680   3.0282870  18.8225020
  74.6921520   2.7594510  18.1784720  76.1850630   2.9187350  18.3727000
  89.8362070   6.7431620  24.8489610  89.0221910   7.1728780  25.1115400
  90.2436270   7.3550030  24.2358660  76.3848610   3.4135440  23.3628360
  76.7521650   3.3262840  24.2424380  75.8159430   2.6501990  23.2635220
  77.8000690   7.9268130  28.5248510  77.7570320   7.5561040  29.4062970
  77.9311700   8.8645700  28.6650330  81.5006720   9.4827720  24.1258230
  81.2598080   9.7502280  23.2388750  82.4409360   9.6533450  24.1809090
  77.6388720  10.8730380  25.6446290  77.0449040  10.7415080  26.3836330
  77.6312560  10.0368520  25.1788390  77.2700950   8.2388760  24.5954330
  76.5435010   7.6194050  24.5280280  77.3310100   8.6329370  23.7252410
  80.8746050  10.4533760  21.3803740  81.3911070   9.8421120  20.8552000
  81.5243430  10.9562540  21.8714750  83.6141550  11.3442250  22.2072720
  83.9019360  11.0896550  21.3305730  84.1264770  10.7919610  22.7978290
  75.5530950  11.5563150  17.8051090  75.3852990  10.9233830  18.5032980
  74.6865460  11.7622550  17.4545280  77.1593650  10.2496380  15.2501230
  76.6341270  10.6304410  14.5463190  77.0838230  10.8747150  15.9710940
  83.6813910  12.2658350  29.5740920  84.6081220  12.0302620  29.6176880
  83.6664340  13.0930350  29.0926950  79.7586620  12.1978760  14.1250480
  80.4905440  11.9138040  13.5774370  80.0180290  11.9592040  15.0149860
  78.9201410   8.3143490  14.1296810  78.2910290   8.7828590  14.6782640
  79.0349240   7.4692710  14.5643000  84.5069170   4.1428170   2.1607280
  83.7311270   3.6628610   2.4505850  85.1582100   3.4633820   1.9863440
  78.5235000   4.4547980   3.0383040  77.6919880   4.1996690   3.4379550
  79.1315980   4.5258750   3.7740960  78.5036260   8.4888070   3.2341060
  78.8064300   7.5985810   3.0551280  79.2479850   9.0458290   3.0063310
  83.9478160   6.8185360   2.1677440  83.8786440   5.8775300   2.0066570
  84.7098020   6.9086770   2.7400010  80.4835020   5.2461480   4.6325910
  80.1504400   5.8730400   5.2746980  80.6601700   5.7723360   3.8527580
  79.6954120   7.2142280   6.4475090  80.3128120   7.8893360   6.1659540
  78.8347240   7.6230260   6.3562590  88.1490450  10.5225820   3.0774910
  88.1617610  10.1188110   2.2097170  87.5965670  11.2973110   2.9736340
  87.5475890   5.4255660   4.4057520  87.9644680   5.2115770   3.5710980
  88.2715710   5.6828450   4.9766140  81.0594490   7.0839660   2.4686510
  80.7622780   6.4785130   1.7894290  82.0094310   7.1216970   2.3575870
  89.1480100  10.6571530   6.1309610  88.6710660  11.4643720   5.9382220
  88.4641890  10.0049860   6.2835820  80.1512920   6.8221350   9.1194310
  79.2541450   7.0461320   9.3667710  80.1765790   6.9456290   8.1705710
  78.9784140   3.6934670   7.6951680  78.8391910   4.5657470   8.0639080
  78.0965500   3.3507480   7.5499620  80.7764490   9.6356370   9.9036830
  80.7479920  10.0399320   9.0365260  80.6129460   8.7066730   9.7408430
  74.9302790   5.4632220   3.6122590  75.0083210   5.5980990   2.6678310
  75.5444470   4.7548110   3.8050710  85.9929300  11.3124320   6.9295820
  86.5073970  11.2232330   7.7318250  85.1498380  11.6584020   7.2223730
  74.9862310   6.5046390   6.1517050  75.1493350   6.0351750   5.3336420
  75.4514760   5.9969950   6.8165890  76.5601290   5.8797820   8.3112860
  76.1756080   5.2391490   8.9095820  76.8713480   6.5833940   8.8807590
  82.7098430   2.7274360   3.7921480  83.0768560   2.2532930   4.5382820
  82.5203490   3.6015930   4.1329820  80.4997800   1.7683000   6.1105690
  80.1954870   2.6474980   6.3356050  81.4544260   1.8282790   6.1463130
  85.1686370   5.0418410   8.3867930  85.1023680   4.1214080   8.1325520
  84.5391510   5.1393850   9.1012570  76.5561530   2.6085740   7.2577050
  76.1976470   3.2739590   7.8450390  76.2616090   1.7769290   7.6289670
  79.7574650   3.0669980  10.1416600  79.4574790   3.2127160   9.2444420
  80.5285890   2.5075270  10.0489990  85.1003100   7.8638980   8.1371730
  85.1147640   6.9319940   7.9190640  84.3928200   7.9498740   8.7761500
  84.5337000   9.5056550   5.2312230  85.1779220   9.7115930   5.9085650
  84.8966440   8.7444950   4.7783080  85.8069080   7.5088900   3.9489680
  86.4491310   6.8082060   4.0621850  86.3318430   8.2887340   3.7686570
  87.5806700   8.3083800   7.1525740  87.9162940   8.8950490   7.8303660
  86.6607040   8.1776510   7.3823530  75.4182690  10.0859240   8.9215680
  75.5273810   9.1453980   8.7811070  74.7663250  10.3513990   8.2729410
  83.4095280   8.3575130  10.3213800  83.0892150   7.6384370  10.8659490
  82.7353640   9.0330200  10.3949860  77.5641130  11.1528150  10.7335290
  78.3653860  11.4740200  11.1470690  77.0492950  10.7923730  11.4555200
  86.4005760   7.2608020  10.6810700  85.7943920   7.2839620   9.9406450
  86.0959870   6.5291060  11.2177950  87.8306130  10.9888310   9.2920110
  88.7827880  10.9046330   9.2420350  87.6834350  11.6530020   9.9653900
  75.2838940   3.6401610   9.6771340  75.7877960   3.0608890  10.2487570
  74.5446360   3.9241840  10.2147710  82.3376880   5.0472600   9.2106860
  81.5722550   5.6157600   9.1261530  82.5192840   4.7548810   8.3175090
  89.4800230   6.7777930   9.7681880  90.2209700   7.1153690   9.2649340
  88.7172910   6.9469990   9.2151650  77.3162020   1.7831200  10.5721410
  77.3567360   1.4845070  11.4806640  78.1707520   2.1838810  10.4128930
  88.1545890   4.8292760   8.3037090  88.5686910   4.9837840   9.1527510
  87.2196890   4.9547980   8.4662870  82.9161120   4.7813240   6.2733020
  83.3349230   5.6245970   6.1009260  81.9969750   4.9185280   6.0439800
  85.2525020   2.5129420   7.6570860  85.3721230   1.9170560   8.3965700
  86.1119020   2.5499110   7.2372160  87.5912920   3.0666610   6.2333370
  87.0648140   3.5909230   5.6298510  87.9344260   3.6994000   6.8643100
  80.7668540  11.0866250   7.3890750  80.2289630  11.8112310   7.0699450
  81.0202500  10.6096590   6.5988090  83.6230750  12.3217460   7.6477400
  83.5489450  13.2252600   7.9549770  82.7209590  12.0029360   7.6199470
  75.5148250  10.5162640   3.6892650  75.0779240  10.6963440   4.5216800
  76.0825930  11.2737260   3.5474370  89.8362070   6.7431620   6.0746120
  89.0221910   7.1728780   6.3371910  90.2436270   7.3550030   5.4615170
  76.3848610   3.4135440   4.5884870  76.7521650   3.3262840   5.4680890
  75.8159430   2.6501990   4.4891730  77.8000690   7.9268130   9.7505020
  77.7570320   7.5561040  10.6319480  77.9311700   8.8645700   9.8906840
  81.5006720   9.4827720   5.3514740  81.2598080   9.7502280   4.4645260
  82.4409360   9.6533450   5.4065600  77.6388720  10.8730380   6.8702800
  77.0449040  10.7415080   7.6092840  77.6312560  10.0368520   6.4044900
  77.2700950   8.2388760   5.8210840  76.5435010   7.6194050   5.7536790
  77.3310100   8.6329370   4.9508920  80.8746050  10.4533760   2.6060250
  81.3911070   9.8421120   2.0808510  81.5243430  10.9562540   3.0971260
  83.6141550  11.3442250   3.4329230  83.9019360  11.0896550   2.5562240
  84.1264770  10.7919610   4.0234800  83.6813910  12.2658350  10.7997430
  84.6081220  12.0302620  10.8433390  83.6664340  13.0930350  10.3183460
  67.6007640  96.2366600  56.6028480  67.5201690  95.3221210  56.3320190
  67.1872060  96.7333670  55.8968190  58.1583460  93.2867320  53.1455900
  57.2700160  93.6283290  53.0435780  58.4424650  93.0867640  52.2536730
  60.3344850  91.8698820  54.1794280  60.4411600  92.7702550  54.4863040
  59.4237210  91.8216790  53.8888930  69.9863960  90.9923630  55.6505180
  70.8073580  90.5020200  55.6930660  70.0198040  91.5821290  56.4037020
  63.8231900  88.6775980  57.1097920  64.1306880  88.1222870  56.3933420
  62.8932600  88.8120440  56.9270910  66.2112660  96.7424810  53.8458040
  65.2841940  96.6762190  54.0746510  66.3637480  97.6804940  53.7313280
  66.1981740  93.0141810  50.8425200  65.2585410  93.1755770  50.9277660
  66.5165000  93.7327490  50.2961190  70.2409950  98.3045110  54.3493290
  69.6222370  97.9664660  53.7019590  70.2234400  97.6604870  55.0572480
  61.8169300  97.2689550  56.6277770  61.4126300  96.5566800  56.1323670
  61.9032420  96.9242790  57.5165810  68.4174650  97.5431920  51.3566040
  68.8567930  96.7054350  51.2103860  69.1303070  98.1761320  51.4430180
  71.9991790  88.7974730  49.6707080  71.6864450  88.8901560  50.5706150
  72.7604260  89.3755760  49.6204510  58.5173930  96.1634530  54.1284420
  58.3971530  96.8896620  53.5165690  58.2074820  95.3937440  53.6512330
  60.9837590  89.5069600  57.5108090  60.5405740  90.2879140  57.1792610
  61.5422580  89.8299490  58.2179030  64.0996410  89.1280300  52.3913920
  63.4750590  89.1240170  53.1167230  64.0126530  88.2611260  51.9949890
  60.7751810  94.6303170  55.2389340  60.5492730  94.4140340  56.1435960
  59.9944340  95.0631630  54.8935310  68.0049570  94.6366540  53.8379990
  67.4058460  95.3602340  53.6543610  68.5529180  94.5743320  53.0556440
  66.6114440  93.2730080  55.8683270  67.0044010  93.5902280  55.0551960
  66.9731290  92.3941960  55.9827790  55.8348840  93.8051000  49.3016190
  55.7523510  94.7481760  49.4431180  55.4831900  93.6625910  48.4228540
  63.6346970  92.5390030  58.3686540  63.6383030  92.0979980  57.5191080
  64.5298090  92.8607360  58.4758360  59.4849350  92.4216520  57.3280750
  59.1449400  92.8991750  58.0847800  58.7226670  91.9681640  56.9681850
  63.6967120  93.5402110  51.3593300  63.8179940  93.4988590  52.3079120
  63.3115630  94.4026260  51.2040030  62.7088620  95.8503250  50.7576600
  62.1405520  95.4021500  50.1312510  63.4177620  96.2096030  50.2241750
  56.7995430  91.3435500  56.2445420  56.5142350  90.9791170  57.0824040
  56.7374290  90.6115960  55.6308560  66.4734020  90.2364760  52.9658790
  65.6598630  89.7377930  52.8904100  66.2795970  91.0763010  52.5495140
  69.1882410  94.6084410  51.2620950  70.0762030  94.9201640  51.0872290
  69.1587500  93.7356660  50.8701530  71.4596680  95.9196250  50.7300810
  71.3760400  96.3510470  49.8797250  72.1790870  96.3794600  51.1627630
  56.2926090  96.4794450  50.2042120  57.1620940  96.7619250  50.4878040
  55.8016410  97.2930320  50.0890930  63.4560900  97.8667660  54.3250400
  63.9123680  98.6772910  54.5510590  63.1049110  97.5490800  55.1568890
  59.3572680  88.2105310  54.7972920  59.2287310  88.2023210  55.7457840
  58.5334700  88.5488400  54.4463930  71.2167420  91.4175680  52.8168630
  70.5880580  91.5221350  52.1026860  70.7219340  91.6372460  53.6062510
  63.1851450  93.6961630  54.2326510  62.4767600  94.1647970  54.6740120
  63.4695930  93.0383640  54.8671700  67.2166880  90.4212290  55.6722300
  67.0934660  90.4398420  54.7231810  68.1651440  90.4691230  55.7920700
  61.3886470  92.0046710  51.6077220  62.2377000  92.4416860  51.5417410
  61.0217740  92.3166970  52.4349280  70.3096250  96.5759470  56.5208790
  69.3686390  96.5909700  56.6956480  70.6240320  95.7895430  56.9669090
  60.2877890  98.2579070  50.0812750  61.0541160  98.1460430  50.6438180
  60.3652580  97.5617040  49.4289520  58.9824650  95.6904140  50.7645640
  59.0628240  94.7431650  50.8763040  59.8744400  96.0211020  50.8706300
  62.3196920  98.2544200  52.0555390  62.7413340  98.0884070  52.8986780
  62.4447760  97.4444430  51.5610530  64.8324560  97.2781810  49.3032490
  65.3530220  96.5630830  48.9373640  65.4792960  97.9167680  49.6033000
  61.2155820  94.3277430  49.0013550  61.0144880  93.4644790  49.3626890
  61.0447870  94.2410790  48.0635150  68.6944130  89.1385660  51.5300430
  68.9746420  88.2953560  51.8859850  67.9209860  89.3708770  52.0439180
  60.0138620  91.4278050  48.9891430  60.3164520  91.4345480  48.0810580
  60.7533210  91.0775910  49.4859090  63.2323550  90.3712670  49.9747630
  62.8845550  89.6936660  49.3950080  63.4336320  89.9102180  50.7891020
  56.5729190  96.9000320  56.3712000  55.9178030  96.6311960  55.7271700
  57.4107140  96.7904800  55.9213980  69.5219630  91.6941610  50.5930490
  69.9404510  91.5072590  49.7527150  69.2155690  90.8420660  50.9033420
  73.0209360  96.6065750  54.2906290  72.6452960  95.8393680  53.8587580
  72.2912480  96.9888450  54.7781220  55.7867270  94.1099250  52.3137330
  54.8831350  94.3729450  52.1388990  56.2707890  94.3810420  51.5337290
  72.2960320  94.8323240  57.5913530  72.8197800  94.3385890  56.9603700
  72.8819740  94.9673600  58.3361100  58.3294480  93.1664790  50.2231710
  59.0386180  92.7448010  49.7378990  57.6134420  93.2340020  49.5915060
  57.9768640  89.2204120  49.2634360  58.6996770  89.7613060  49.5815580
  58.2493160  88.9467540  48.3875900  71.7860290  94.0896590  53.5305940
  72.2819410  93.8567460  54.3154820  71.5876360  93.2508430  53.1143580
  73.2147450  92.7257540  56.0643620  73.1046730  92.5713580  57.0025890
  73.9755040  92.1978480  55.8219030  74.1037720  90.5565460  49.3049760
  75.0287030  90.4246640  49.0968050  74.0813510  90.6358280  50.2586210
  74.1776210  91.3276120  51.9306470  73.3827710  91.2621240  52.4599380
  74.3819490  92.2626760  51.9191820  70.6096140  89.6573000  58.3805300
  71.0504230  89.6018100  57.5326900  70.3403730  90.5731010  58.4515480
  72.4734710  89.2888240  56.3914120  72.4123110  88.3449460  56.2445140
  73.2526740  89.3968330  56.9367580  57.4015480  89.2597380  52.8569930
  58.1594840  89.3726260  52.2833960  56.9392650  90.0966580  52.8113360
  63.9429290  91.3736650  55.8472240  63.1303800  90.9993540  55.5068120
  64.4470930  90.6181730  56.1493430  68.4454270  88.0379100  57.0855310
  69.0483640  88.6099310  57.5603830  67.7047260  88.6018540  56.8629210
  71.5888870  88.4400660  52.3595590  71.7839500  89.3384110  52.6263020
  70.8018740  88.2087740  52.8528540  59.7740630  89.7861430  51.3971900
  60.3033390  88.9991230  51.2679850  60.4068950  90.4652620  51.6307430
  61.9678470  89.5236570  54.4517290  61.3381210  88.8223880  54.6187420
  61.4283610  90.2840700  54.2350450  67.6007640  96.2366600  37.8284990
  67.5201690  95.3221210  37.5576700  67.1872060  96.7333670  37.1224700
  65.7325680  98.0145620  39.7094260  64.9567780  97.5346060  39.9992830
  66.3838610  97.3351270  39.5350420  59.7491510  98.3265430  40.5870020
  58.9176390  98.0714140  40.9866530  60.3572490  98.3976200  41.3227940
  58.1583460  93.2867320  34.3712410  57.2700160  93.6283290  34.2692290
  58.4424650  93.0867640  33.4793240  56.1216470  95.8872970  40.2552110
  56.6932580  95.1195170  40.2555750  56.1218010  96.1861730  39.3458720
  57.3641340  91.2957330  42.0421040  57.1844180  90.3983080  42.3223800
  56.9621420  91.8429200  42.7167990  66.2039840  93.4973190  39.9433350
  66.5804660  92.6245070  39.8307020  66.1059350  93.8331890  39.0523790
  60.3344850  91.8698820  35.4050790  60.4411600  92.7702550  35.7119550
  59.4237210  91.8216790  35.1145440  69.9863960  90.9923630  36.8761690
  70.8073580  90.5020200  36.9187170  70.0198040  91.5821290  37.6293530
  57.9828010  93.7917830  40.6503380  58.6638120  94.0556200  41.2690780
  57.6676060  92.9518700  40.9841390  62.1752580  94.8385190  39.7375970
  62.6830800  95.3366160  40.3780990  62.7065820  94.0620390  39.5615330
  74.2763510  93.0090380  43.4405320  73.5715680  93.3972090  42.9220430
  74.5421430  93.7040670  44.0426250  60.4588680  89.4783750  44.0039390
  60.4607120  89.9956140  43.1985290  59.6292990  89.0013930  43.9809320
  70.2225440  92.9324010  39.6489230  69.5181010  93.2208900  40.2292340
  70.5837600  93.7424120  39.2888790  60.1404010  91.1893710  42.0109840
  60.4820820  92.0335760  41.7163710  59.2019820  91.3377450  42.1275180
  73.2912360  92.3778800  40.0398440  72.3437270  92.4117780  40.1713870
  73.6162350  93.1917750  40.4247800  63.8231900  88.6775980  38.3354430
  64.1306880  88.1222870  37.6189930  62.8932600  88.8120440  38.1527420
  66.2112660  96.7424810  35.0714550  65.2841940  96.6762190  35.3003020
  66.3637480  97.6804940  34.9569790  66.1981740  93.0141810  32.0681710
  65.2585410  93.1755770  32.1534170  66.5165000  93.7327490  31.5217700
  72.7194500  97.6960330  42.0460740  71.8913130  97.7653420  41.5710870
  73.3144980  98.2814640  41.5776570  70.2409950  98.3045110  35.5749800
  69.6222370  97.9664660  34.9276100  70.2234400  97.6604870  36.2828990
  69.6836510  94.4829650  42.9915610  69.2707690  95.3083360  43.2455600
  68.9512460  93.8974690  42.7991970  61.8169300  97.2689550  37.8534280
  61.4126300  96.5566800  37.3580180  61.9032420  96.9242790  38.7422320
  60.5297920  94.0432760  41.6333320  61.0812510  94.1528100  40.8586570
  61.0441430  94.4170360  42.3488550  68.4174650  97.5431920  32.5822550
  68.8567930  96.7054350  32.4360370  69.1303070  98.1761320  32.6686690
  60.2040650  97.5652120  45.2438660  60.0648420  98.4374920  45.6126060
  59.3222010  97.2224930  45.0986600  71.9991790  88.7974730  30.8963590
  71.6864450  88.8901560  31.7962660  72.7604260  89.3755760  30.8461020
  58.5173930  96.1634530  35.3540930  58.3971530  96.8896620  34.7422200
  58.2074820  95.3937440  34.8768840  73.2093080  93.5346230  46.8737730
  72.5937350  94.0425900  46.3453190  72.8889500  92.6344560  46.8163670
  60.9837590  89.5069600  38.7364600  60.5405740  90.2879140  38.4049120
  61.5422580  89.8299490  39.4435540  65.2707400  92.3738120  44.3399920
  64.8086770  92.5821140  45.1519860  64.8685510  91.5597470  44.0370590
  70.2711910  93.5947070  45.4696580  69.4205500  93.2952820  45.7905650
  70.1113700  93.8389080  44.5580400  67.3661620  95.0948820  47.5695370
  67.6915030  94.2612570  47.2297600  68.1541950  95.6177340  47.7173700
  64.0996410  89.1280300  33.6170430  63.4750590  89.1240170  34.3423740
  64.0126530  88.2611260  33.2206400  63.0213490  90.0516930  40.5954200
  63.3185820  90.9579760  40.5146220  63.5699050  89.5635710  39.9813770
  60.7751810  94.6303170  36.4645850  60.5492730  94.4140340  37.3692470
  59.9944340  95.0631630  36.1191820  68.0049570  94.6366540  35.0636500
  67.4058460  95.3602340  34.8800120  68.5529180  94.5743320  34.2812950
  63.2151020  95.5288750  47.1306120  63.1194620  94.5883480  46.9806520
  64.0583000  95.7503820  46.7354190  66.6114440  93.2730080  37.0939780
  67.0044010  93.5902280  36.2808470  66.9731290  92.3941960  37.2084300
  58.3461560  91.9402420  45.2839900  57.9524950  92.7877630  45.4912680
  57.6579960  91.3028790  45.4748540  64.9206610  92.0237390  48.3536640
  64.2304930  91.8309590  48.9882730  65.6638910  92.3072030  48.8860940
  55.6478610  89.8630880  39.3169980  55.3591660  90.4333740  40.0294960
  56.3924370  89.3835330  39.6801210  55.8348840  93.8051000  30.5272700
  55.7523510  94.7481760  30.6687690  55.4831900  93.6625910  29.6485050
  67.1969580  95.8635830  41.1890560  66.4650700  96.3722640  41.5380660
  66.7993920  95.0465810  40.8879340  63.6346970  92.5390030  39.5943050
  63.6383030  92.0979980  38.7447590  64.5298090  92.8607360  39.7014870
  59.4849350  92.4216520  38.5537260  59.1449400  92.8991750  39.3104310
  58.7226670  91.9681640  38.1938360  63.6967120  93.5402110  32.5849810
  63.8179940  93.4988590  33.5335630  63.3115630  94.4026260  32.4296540
  67.6595490  91.3169510  40.6013500  67.6768230  91.7678160  41.4455350
  67.4111070  90.4175150  40.8146940  62.7088620  95.8503250  31.9833110
  62.1405520  95.4021500  31.3569020  63.4177620  96.2096030  31.4498260
  71.0866240  88.7301690  46.4399880  71.4112010  87.9991350  46.9657860
  71.1222750  88.4115330  45.5380870  63.9354940  96.5991810  41.3408460
  64.3025070  96.1250380  42.0869800  63.7460000  97.4733380  41.6816800
  56.7995430  91.3435500  37.4701930  56.5142350  90.9791170  38.3080550
  56.7374290  90.6115960  36.8565070  61.7254310  95.6400450  43.6592670
  61.4211380  96.5192430  43.8843030  62.6800770  95.7000240  43.6950110
  66.4734020  90.2364760  34.1915300  65.6598630  89.7377930  34.1160610
  66.2795970  91.0763010  33.7751650  69.1882410  94.6084410  32.4877460
  70.0762030  94.9201640  32.3128800  69.1587500  93.7356660  32.0958040
  57.7818040  96.4803190  44.8064030  57.4232980  97.1457040  45.3937370
  57.4872600  95.6486740  45.1776650  60.9831160  96.9387430  47.6903580
  60.6831300  97.0844610  46.7931400  61.7542400  96.3792720  47.5976970
  71.4596680  95.9196250  31.9557320  71.3760400  96.3510470  31.1053760
  72.1790870  96.3794600  32.3884140  56.2926090  96.4794450  31.4298630
  57.1620940  96.7619250  31.7134550  55.8016410  97.2930320  31.3147440
  63.4560900  97.8667660  35.5506910  63.9123680  98.6772910  35.7767100
  63.1049110  97.5490800  36.3825400  59.3572680  88.2105310  36.0229430
  59.2287310  88.2023210  36.9714350  58.5334700  88.5488400  35.6720440
  56.3566610  89.9696430  45.4836130  55.6425130  90.1693350  46.0888740
  56.7761650  89.1936000  45.8550930  67.8505390  92.4618740  43.2337580
  68.2186210  91.6413950  43.5617150  66.9903590  92.5220630  43.6493230
  71.2167420  91.4175680  34.0425140  70.5880580  91.5221350  33.3283370
  70.7219340  91.6372460  34.8319020  63.1851450  93.6961630  35.4583020
  62.4767600  94.1647970  35.8996630  63.4695930  93.0383640  36.0928210
  64.8107380  95.1158330  43.4575550  65.3092630  95.5904150  44.1227400
  64.9530330  94.1921850  43.6645580  67.2166880  90.4212290  36.8978810
  67.0934660  90.4398420  35.9488320  68.1651440  90.4691230  37.0177210
  61.3886470  92.0046710  32.8333730  62.2377000  92.4416860  32.7673920
  61.0217740  92.3166970  33.6605790  72.0174240  91.3326290  44.3003940
  71.5147840  92.0731690  44.6397750  72.8330900  91.7210290  43.9840730
  70.3096250  96.5759470  37.7465300  69.3686390  96.5909700  37.9212990
  70.6240320  95.7895430  38.1925600  60.2877890  98.2579070  31.3069260
  61.0541160  98.1460430  31.8694690  60.3652580  97.5617040  30.6546030
  58.9824650  95.6904140  31.9902150  59.0628240  94.7431650  32.1019550
  59.8744400  96.0211020  32.0962810  56.5095450  97.5119060  47.2258320
  57.0134470  96.9326340  47.7974550  55.7702870  97.7959290  47.7634690
  58.5418530  95.6548650  48.1208390  58.5823870  95.3562520  49.0293620
  59.3964030  96.0556260  47.9615910  62.3196920  98.2544200  33.2811900
  62.7413340  98.0884070  34.1243290  62.4447760  97.4444430  32.7867040
  60.4824340  94.2340750  46.0882880  59.9520800  93.7431700  45.4606220
  61.1512410  94.6624950  45.5540810  64.8324560  97.2781810  30.5289000
  65.3530220  96.5630830  30.1630150  65.4792960  97.9167680  30.8289510
  69.8524570  96.0406370  47.8563220  70.4345340  95.2858690  47.7683700
  70.0286340  96.5713810  47.0794700  60.9696640  91.2003120  46.1680170
  60.8753510  90.5823870  45.4431040  60.3894030  91.9269410  45.9410080
  63.7358080  89.7576360  43.2007560  63.2875380  89.7800620  42.3553110
  63.1023280  89.3595380  43.7977860  66.4781530  96.3846870  45.2057840
  66.5977740  95.7888010  45.9452680  67.3375530  96.4216560  44.7859140
  68.8169430  96.9384060  43.7820350  68.2904650  97.4626680  43.1785490
  69.1600770  97.5711450  44.4130080  61.2155820  94.3277430  30.2270060
  61.0144880  93.4644790  30.5883400  61.0447870  94.2410790  29.2891660
  63.2450300  92.9268220  46.4633660  63.8349990  92.6184070  47.1511480
  62.4270540  92.4547970  46.6193560  68.0643730  92.5434030  46.6966680
  67.3759250  91.8815570  46.6316670  68.7849750  92.0972300  47.1415140
  68.6944130  89.1385660  32.7556940  68.9746420  88.2953560  33.1116360
  67.9209860  89.3708770  33.2695690  60.0138620  91.4278050  30.2147940
  60.3164520  91.4345480  29.3067090  60.7533210  91.0775910  30.7115600
  63.2323550  90.3712670  31.2004140  62.8845550  89.6936660  30.6206590
  63.4336320  89.9102180  32.0147530  56.5729190  96.9000320  37.5968510
  55.9178030  96.6311960  36.9528210  57.4107140  96.7904800  37.1470490
  69.5219630  91.6941610  31.8187000  69.9404510  91.5072590  30.9783660
  69.2155690  90.8420660  32.1289930  73.0209360  96.6065750  35.5162800
  72.6452960  95.8393680  35.0844090  72.2912480  96.9888450  36.0037730
  57.6105120  97.2852890  42.1371850  57.9778160  97.1980290  43.0167870
  57.0415940  96.5219440  42.0378710  72.4108980  95.7537270  45.1502320
  72.1795070  95.5250020  44.2500270  72.6713530  96.6736820  45.1047210
  57.1621120  94.1961980  46.0430270  56.2677170  94.1628740  46.3823980
  57.7018670  94.3948770  46.8081520  70.8497050  90.9793700  47.9282020
  71.7267230  90.9877100  48.3116020  70.8617890  90.2424540  47.3174370
  55.7867270  94.1099250  33.5393840  54.8831350  94.3729450  33.3645500
  56.2707890  94.3810420  32.7593800  72.2960320  94.8323240  38.8170040
  72.8197800  94.3385890  38.1860210  72.8819740  94.9673600  39.5617610
  72.4750040  94.9163110  42.3389590  71.5252750  94.8826650  42.4534580
  72.6563050  95.8263220  42.1039360  58.3294480  93.1664790  31.4488220
  59.0386180  92.7448010  30.9635500  57.6134420  93.2340020  30.8171570
  57.9768640  89.2204120  30.4890870  58.6996770  89.7613060  30.8072090
  58.2493160  88.9467540  29.6132410  71.7860290  94.0896590  34.7562450
  72.2819410  93.8567460  35.5411330  71.5876360  93.2508430  34.3400090
  57.6660830  88.4710310  40.3913490  58.3137020  87.9207690  39.9508650
  58.0862670  88.7253460  41.2129300  73.2147450  92.7257540  37.2900130
  73.1046730  92.5713580  38.2282400  73.9755040  92.1978480  37.0475540
  71.5613170  88.6651670  43.7483130  72.1985390  89.2785810  44.1142320
  71.7088060  88.7012330  42.8032360  74.1037720  90.5565460  30.5306270
  75.0287030  90.4246640  30.3224560  74.0813510  90.6358280  31.4842720
  74.1776210  91.3276120  33.1562980  73.3827710  91.2621240  33.6855890
  74.3819490  92.2626760  33.1448330  57.4192830  88.6265980  43.1338810
  57.0707650  89.0829800  43.8996990  57.0880530  87.7323110  43.2161240
  64.9317650  89.8177860  46.6558230  64.8706540  90.4099690  47.4053640
  65.8718030  89.7103820  46.5108490  67.5692210  89.4747920  46.2950520
  68.1832620  89.7927210  45.6331600  68.1141770  88.9896510  46.9146380
  58.0913470  88.1542180  46.4089580  58.6396460  87.9730230  45.6455690
  58.1568780  87.3636290  46.9445890  68.3100250  88.0380060  42.6219810
  67.4360090  88.3715170  42.4192740  68.2011000  87.5653240  43.4471680
  69.2172230  90.2450930  44.0061530  68.8885590  89.4302690  43.6263260
  70.1654530  90.2020740  43.8827220  66.0575070  88.9549900  41.5612720
  65.2746860  89.4295400  41.8409480  65.7638000  88.0504730  41.4525900
  70.6096140  89.6573000  39.6061810  71.0504230  89.6018100  38.7583410
  70.3403730  90.5731010  39.6771990  72.4734710  89.2888240  37.6170630
  72.4123110  88.3449460  37.4701650  73.2526740  89.3968330  38.1624090
  57.4015480  89.2597380  34.0826440  58.1594840  89.3726260  33.5090470
  56.9392650  90.0966580  34.0369870  63.9429290  91.3736650  37.0728750
  63.1303800  90.9993540  36.7324630  64.4470930  90.6181730  37.3749940
  68.4454270  88.0379100  38.3111820  69.0483640  88.6099310  38.7860340
  67.7047260  88.6018540  38.0885720  71.5888870  88.4400660  33.5852100
  71.7839500  89.3384110  33.8519530  70.8018740  88.2087740  34.0785050
  59.7740630  89.7861430  32.6228410  60.3033390  88.9991230  32.4936360
  60.4068950  90.4652620  32.8563940  61.9678470  89.5236570  35.6773800
  61.3381210  88.8223880  35.8443930  61.4283610  90.2840700  35.4606960
  62.0934030  88.8020550  48.1126290  61.8118300  89.3054150  47.3487110
  62.4753730  88.0042300  47.7468420  68.6949490  88.2174130  48.6906760
  68.5814940  88.5368740  49.5858280  69.5119230  88.6186640  48.3944040
  67.6007640  96.2366600  19.0541500  67.5201690  95.3221210  18.7833210
  67.1872060  96.7333670  18.3481210  65.7325680  98.0145620  20.9350770
  64.9567780  97.5346060  21.2249340  66.3838610  97.3351270  20.7606930
  59.7491510  98.3265430  21.8126530  58.9176390  98.0714140  22.2123040
  60.3572490  98.3976200  22.5484450  58.1583460  93.2867320  15.5968920
  57.2700160  93.6283290  15.4948800  58.4424650  93.0867640  14.7049750
  56.1216470  95.8872970  21.4808620  56.6932580  95.1195170  21.4812260
  56.1218010  96.1861730  20.5715230  57.3641340  91.2957330  23.2677550
  57.1844180  90.3983080  23.5480310  56.9621420  91.8429200  23.9424500
  66.2039840  93.4973190  21.1689860  66.5804660  92.6245070  21.0563530
  66.1059350  93.8331890  20.2780300  60.3344850  91.8698820  16.6307300
  60.4411600  92.7702550  16.9376060  59.4237210  91.8216790  16.3401950
  69.9863960  90.9923630  18.1018200  70.8073580  90.5020200  18.1443680
  70.0198040  91.5821290  18.8550040  57.9828010  93.7917830  21.8759890
  58.6638120  94.0556200  22.4947290  57.6676060  92.9518700  22.2097900
  62.1752580  94.8385190  20.9632480  62.6830800  95.3366160  21.6037500
  62.7065820  94.0620390  20.7871840  74.2763510  93.0090380  24.6661830
  73.5715680  93.3972090  24.1476940  74.5421430  93.7040670  25.2682760
  60.4588680  89.4783750  25.2295900  60.4607120  89.9956140  24.4241800
  59.6292990  89.0013930  25.2065830  70.2225440  92.9324010  20.8745740
  69.5181010  93.2208900  21.4548850  70.5837600  93.7424120  20.5145300
  60.1404010  91.1893710  23.2366350  60.4820820  92.0335760  22.9420220
  59.2019820  91.3377450  23.3531690  73.2912360  92.3778800  21.2654950
  72.3437270  92.4117780  21.3970380  73.6162350  93.1917750  21.6504310
  63.8231900  88.6775980  19.5610940  64.1306880  88.1222870  18.8446440
  62.8932600  88.8120440  19.3783930  66.2112660  96.7424810  16.2971060
  65.2841940  96.6762190  16.5259530  66.3637480  97.6804940  16.1826300
  66.1981740  93.0141810  13.2938220  65.2585410  93.1755770  13.3790680
  66.5165000  93.7327490  12.7474210  72.7194500  97.6960330  23.2717250
  71.8913130  97.7653420  22.7967380  73.3144980  98.2814640  22.8033080
  70.2409950  98.3045110  16.8006310  69.6222370  97.9664660  16.1532610
  70.2234400  97.6604870  17.5085500  69.6836510  94.4829650  24.2172120
  69.2707690  95.3083360  24.4712110  68.9512460  93.8974690  24.0248480
  61.8169300  97.2689550  19.0790790  61.4126300  96.5566800  18.5836690
  61.9032420  96.9242790  19.9678830  60.5297920  94.0432760  22.8589830
  61.0812510  94.1528100  22.0843080  61.0441430  94.4170360  23.5745060
  68.4174650  97.5431920  13.8079060  68.8567930  96.7054350  13.6616880
  69.1303070  98.1761320  13.8943200  60.2040650  97.5652120  26.4695170
  60.0648420  98.4374920  26.8382570  59.3222010  97.2224930  26.3243110
  71.9991790  88.7974730  12.1220100  71.6864450  88.8901560  13.0219170
  72.7604260  89.3755760  12.0717530  58.5173930  96.1634530  16.5797440
  58.3971530  96.8896620  15.9678710  58.2074820  95.3937440  16.1025350
  73.2093080  93.5346230  28.0994240  72.5937350  94.0425900  27.5709700
  72.8889500  92.6344560  28.0420180  60.9837590  89.5069600  19.9621110
  60.5405740  90.2879140  19.6305630  61.5422580  89.8299490  20.6692050
  65.2707400  92.3738120  25.5656430  64.8086770  92.5821140  26.3776370
  64.8685510  91.5597470  25.2627100  70.2711910  93.5947070  26.6953090
  69.4205500  93.2952820  27.0162160  70.1113700  93.8389080  25.7836910
  67.3661620  95.0948820  28.7951880  67.6915030  94.2612570  28.4554110
  68.1541950  95.6177340  28.9430210  64.0996410  89.1280300  14.8426940
  63.4750590  89.1240170  15.5680250  64.0126530  88.2611260  14.4462910
  63.0213490  90.0516930  21.8210710  63.3185820  90.9579760  21.7402730
  63.5699050  89.5635710  21.2070280  60.7751810  94.6303170  17.6902360
  60.5492730  94.4140340  18.5948980  59.9944340  95.0631630  17.3448330
  68.0049570  94.6366540  16.2893010  67.4058460  95.3602340  16.1056630
  68.5529180  94.5743320  15.5069460  63.2151020  95.5288750  28.3562630
  63.1194620  94.5883480  28.2063030  64.0583000  95.7503820  27.9610700
  66.6114440  93.2730080  18.3196290  67.0044010  93.5902280  17.5064980
  66.9731290  92.3941960  18.4340810  58.3461560  91.9402420  26.5096410
  57.9524950  92.7877630  26.7169190  57.6579960  91.3028790  26.7005050
  64.9206610  92.0237390  29.5793150  64.2304930  91.8309590  30.2139240
  65.6638910  92.3072030  30.1117450  55.6478610  89.8630880  20.5426490
  55.3591660  90.4333740  21.2551470  56.3924370  89.3835330  20.9057720
  55.8348840  93.8051000  11.7529210  55.7523510  94.7481760  11.8944200
  55.4831900  93.6625910  10.8741560  67.1969580  95.8635830  22.4147070
  66.4650700  96.3722640  22.7637170  66.7993920  95.0465810  22.1135850
  63.6346970  92.5390030  20.8199560  63.6383030  92.0979980  19.9704100
  64.5298090  92.8607360  20.9271380  59.4849350  92.4216520  19.7793770
  59.1449400  92.8991750  20.5360820  58.7226670  91.9681640  19.4194870
  63.6967120  93.5402110  13.8106320  63.8179940  93.4988590  14.7592140
  63.3115630  94.4026260  13.6553050  67.6595490  91.3169510  21.8270010
  67.6768230  91.7678160  22.6711860  67.4111070  90.4175150  22.0403450
  62.7088620  95.8503250  13.2089620  62.1405520  95.4021500  12.5825530
  63.4177620  96.2096030  12.6754770  71.0866240  88.7301690  27.6656390
  71.4112010  87.9991350  28.1914370  71.1222750  88.4115330  26.7637380
  63.9354940  96.5991810  22.5664970  64.3025070  96.1250380  23.3126310
  63.7460000  97.4733380  22.9073310  56.7995430  91.3435500  18.6958440
  56.5142350  90.9791170  19.5337060  56.7374290  90.6115960  18.0821580
  61.7254310  95.6400450  24.8849180  61.4211380  96.5192430  25.1099540
  62.6800770  95.7000240  24.9206620  66.4734020  90.2364760  15.4171810
  65.6598630  89.7377930  15.3417120  66.2795970  91.0763010  15.0008160
  69.1882410  94.6084410  13.7133970  70.0762030  94.9201640  13.5385310
  69.1587500  93.7356660  13.3214550  57.7818040  96.4803190  26.0320540
  57.4232980  97.1457040  26.6193880  57.4872600  95.6486740  26.4033160
  60.9831160  96.9387430  28.9160090  60.6831300  97.0844610  28.0187910
  61.7542400  96.3792720  28.8233480  71.4596680  95.9196250  13.1813830
  71.3760400  96.3510470  12.3310270  72.1790870  96.3794600  13.6140650
  56.2926090  96.4794450  12.6555140  57.1620940  96.7619250  12.9391060
  55.8016410  97.2930320  12.5403950  63.4560900  97.8667660  16.7763420
  63.9123680  98.6772910  17.0023610  63.1049110  97.5490800  17.6081910
  59.3572680  88.2105310  17.2485940  59.2287310  88.2023210  18.1970860
  58.5334700  88.5488400  16.8976950  56.3566610  89.9696430  26.7092640
  55.6425130  90.1693350  27.3145250  56.7761650  89.1936000  27.0807440
  67.8505390  92.4618740  24.4594090  68.2186210  91.6413950  24.7873660
  66.9903590  92.5220630  24.8749740  71.2167420  91.4175680  15.2681650
  70.5880580  91.5221350  14.5539880  70.7219340  91.6372460  16.0575530
  63.1851450  93.6961630  16.6839530  62.4767600  94.1647970  17.1253140
  63.4695930  93.0383640  17.3184720  64.8107380  95.1158330  24.6832060
  65.3092630  95.5904150  25.3483910  64.9530330  94.1921850  24.8902090
  67.2166880  90.4212290  18.1235320  67.0934660  90.4398420  17.1744830
  68.1651440  90.4691230  18.2433720  61.3886470  92.0046710  14.0590240
  62.2377000  92.4416860  13.9930430  61.0217740  92.3166970  14.8862300
  72.0174240  91.3326290  25.5260450  71.5147840  92.0731690  25.8654260
  72.8330900  91.7210290  25.2097240  70.3096250  96.5759470  18.9721810
  69.3686390  96.5909700  19.1469500  70.6240320  95.7895430  19.4182110
  60.2877890  98.2579070  12.5325770  61.0541160  98.1460430  13.0951200
  60.3652580  97.5617040  11.8802540  58.9824650  95.6904140  13.2158660
  59.0628240  94.7431650  13.3276060  59.8744400  96.0211020  13.3219320
  56.5095450  97.5119060  28.4514830  57.0134470  96.9326340  29.0231060
  55.7702870  97.7959290  28.9891200  58.5418530  95.6548650  29.3464900
  58.5823870  95.3562520  30.2550130  59.3964030  96.0556260  29.1872420
  62.3196920  98.2544200  14.5068410  62.7413340  98.0884070  15.3499800
  62.4447760  97.4444430  14.0123550  60.4824340  94.2340750  27.3139390
  59.9520800  93.7431700  26.6862730  61.1512410  94.6624950  26.7797320
  64.8324560  97.2781810  11.7545510  65.3530220  96.5630830  11.3886660
  65.4792960  97.9167680  12.0546020  69.8524570  96.0406370  29.0819730
  70.4345340  95.2858690  28.9940210  70.0286340  96.5713810  28.3051210
  60.9696640  91.2003120  27.3936680  60.8753510  90.5823870  26.6687550
  60.3894030  91.9269410  27.1666590  63.7358080  89.7576360  24.4264070
  63.2875380  89.7800620  23.5809620  63.1023280  89.3595380  25.0234370
  66.4781530  96.3846870  26.4314350  66.5977740  95.7888010  27.1709190
  67.3375530  96.4216560  26.0115650  68.8169430  96.9384060  25.0076860
  68.2904650  97.4626680  24.4042000  69.1600770  97.5711450  25.6386590
  61.2155820  94.3277430  11.4526570  61.0144880  93.4644790  11.8139910
  61.0447870  94.2410790  10.5148170  63.2450300  92.9268220  27.6890170
  63.8349990  92.6184070  28.3767990  62.4270540  92.4547970  27.8450070
  68.0643730  92.5434030  27.9223190  67.3759250  91.8815570  27.8573180
  68.7849750  92.0972300  28.3671650  68.6944130  89.1385660  13.9813450
  68.9746420  88.2953560  14.3372870  67.9209860  89.3708770  14.4952200
  60.0138620  91.4278050  11.4404450  60.3164520  91.4345480  10.5323600
  60.7533210  91.0775910  11.9372110  63.2323550  90.3712670  12.4260650
  62.8845550  89.6936660  11.8463100  63.4336320  89.9102180  13.2404040
  56.5729190  96.9000320  18.8225020  55.9178030  96.6311960  18.1784720
  57.4107140  96.7904800  18.3727000  69.5219630  91.6941610  13.0443510
  69.9404510  91.5072590  12.2040170  69.2155690  90.8420660  13.3546440
  73.0209360  96.6065750  16.7419310  72.6452960  95.8393680  16.3100600
  72.2912480  96.9888450  17.2294240  57.6105120  97.2852890  23.3628360
  57.9778160  97.1980290  24.2424380  57.0415940  96.5219440  23.2635220
  72.4108980  95.7537270  26.3758830  72.1795070  95.5250020  25.4756780
  72.6713530  96.6736820  26.3303720  57.1621120  94.1961980  27.2686780
  56.2677170  94.1628740  27.6080490  57.7018670  94.3948770  28.0338030
  70.8497050  90.9793700  29.1538530  71.7267230  90.9877100  29.5372530
  70.8617890  90.2424540  28.5430880  55.7867270  94.1099250  14.7650350
  54.8831350  94.3729450  14.5902010  56.2707890  94.3810420  13.9850310
  72.2960320  94.8323240  20.0426550  72.8197800  94.3385890  19.4116720
  72.8819740  94.9673600  20.7874120  72.4750040  94.9163110  23.5646100
  71.5252750  94.8826650  23.6791090  72.6563050  95.8263220  23.3295870
  58.3294480  93.1664790  12.6744730  59.0386180  92.7448010  12.1892010
  57.6134420  93.2340020  12.0428080  57.9768640  89.2204120  11.7147380
  58.6996770  89.7613060  12.0328600  58.2493160  88.9467540  10.8388920
  71.7860290  94.0896590  15.9818960  72.2819410  93.8567460  16.7667840
  71.5876360  93.2508430  15.5656600  57.6660830  88.4710310  21.6170000
  58.3137020  87.9207690  21.1765160  58.0862670  88.7253460  22.4385810
  73.2147450  92.7257540  18.5156640  73.1046730  92.5713580  19.4538910
  73.9755040  92.1978480  18.2732050  71.5613170  88.6651670  24.9739640
  72.1985390  89.2785810  25.3398830  71.7088060  88.7012330  24.0288870
  74.1037720  90.5565460  11.7562780  75.0287030  90.4246640  11.5481070
  74.0813510  90.6358280  12.7099230  74.1776210  91.3276120  14.3819490
  73.3827710  91.2621240  14.9112400  74.3819490  92.2626760  14.3704840
  57.4192830  88.6265980  24.3595320  57.0707650  89.0829800  25.1253500
  57.0880530  87.7323110  24.4417750  64.9317650  89.8177860  27.8814740
  64.8706540  90.4099690  28.6310150  65.8718030  89.7103820  27.7365000
  67.5692210  89.4747920  27.5207030  68.1832620  89.7927210  26.8588110
  68.1141770  88.9896510  28.1402890  58.0913470  88.1542180  27.6346090
  58.6396460  87.9730230  26.8712200  58.1568780  87.3636290  28.1702400
  68.3100250  88.0380060  23.8476320  67.4360090  88.3715170  23.6449250
  68.2011000  87.5653240  24.6728190  69.2172230  90.2450930  25.2318040
  68.8885590  89.4302690  24.8519770  70.1654530  90.2020740  25.1083730
  66.0575070  88.9549900  22.7869230  65.2746860  89.4295400  23.0665990
  65.7638000  88.0504730  22.6782410  70.6096140  89.6573000  20.8318320
  71.0504230  89.6018100  19.9839920  70.3403730  90.5731010  20.9028500
  72.4734710  89.2888240  18.8427140  72.4123110  88.3449460  18.6958160
  73.2526740  89.3968330  19.3880600  57.4015480  89.2597380  15.3082950
  58.1594840  89.3726260  14.7346980  56.9392650  90.0966580  15.2626380
  63.9429290  91.3736650  18.2985260  63.1303800  90.9993540  17.9581140
  64.4470930  90.6181730  18.6006450  68.4454270  88.0379100  19.5368330
  69.0483640  88.6099310  20.0116850  67.7047260  88.6018540  19.3142230
  71.5888870  88.4400660  14.8108610  71.7839500  89.3384110  15.0776040
  70.8018740  88.2087740  15.3041560  59.7740630  89.7861430  13.8484920
  60.3033390  88.9991230  13.7192870  60.4068950  90.4652620  14.0820450
  61.9678470  89.5236570  16.9030310  61.3381210  88.8223880  17.0700440
  61.4283610  90.2840700  16.6863470  62.0934030  88.8020550  29.3382800
  61.8118300  89.3054150  28.5743620  62.4753730  88.0042300  28.9724930
  68.6949490  88.2174130  29.9163270  68.5814940  88.5368740  30.8114790
  69.5119230  88.6186640  29.6200550  65.7325680  98.0145620   2.1607280
  64.9567780  97.5346060   2.4505850  66.3838610  97.3351270   1.9863440
  59.7491510  98.3265430   3.0383040  58.9176390  98.0714140   3.4379550
  60.3572490  98.3976200   3.7740960  56.1216470  95.8872970   2.7065130
  56.6932580  95.1195170   2.7068770  56.1218010  96.1861730   1.7971740
  57.3641340  91.2957330   4.4934060  57.1844180  90.3983080   4.7736820
  56.9621420  91.8429200   5.1681010  66.2039840  93.4973190   2.3946370
  66.5804660  92.6245070   2.2820040  66.1059350  93.8331890   1.5036810
  57.9828010  93.7917830   3.1016400  58.6638120  94.0556200   3.7203800
  57.6676060  92.9518700   3.4354410  62.1752580  94.8385190   2.1888990
  62.6830800  95.3366160   2.8294010  62.7065820  94.0620390   2.0128350
  74.2763510  93.0090380   5.8918340  73.5715680  93.3972090   5.3733450
  74.5421430  93.7040670   6.4939270  60.4588680  89.4783750   6.4552410
  60.4607120  89.9956140   5.6498310  59.6292990  89.0013930   6.4322340
  70.2225440  92.9324010   2.1002250  69.5181010  93.2208900   2.6805360
  70.5837600  93.7424120   1.7401810  60.1404010  91.1893710   4.4622860
  60.4820820  92.0335760   4.1676730  59.2019820  91.3377450   4.5788200
  73.2912360  92.3778800   2.4911460  72.3437270  92.4117780   2.6226890
  73.6162350  93.1917750   2.8760820  72.7194500  97.6960330   4.4973760
  71.8913130  97.7653420   4.0223890  73.3144980  98.2814640   4.0289590
  69.6836510  94.4829650   5.4428630  69.2707690  95.3083360   5.6968620
  68.9512460  93.8974690   5.2504990  60.5297920  94.0432760   4.0846340
  61.0812510  94.1528100   3.3099590  61.0441430  94.4170360   4.8001570
  60.2040650  97.5652120   7.6951680  60.0648420  98.4374920   8.0639080
  59.3222010  97.2224930   7.5499620  73.2093080  93.5346230   9.3250750
  72.5937350  94.0425900   8.7966210  72.8889500  92.6344560   9.2676690
  65.2707400  92.3738120   6.7912940  64.8086770  92.5821140   7.6032880
  64.8685510  91.5597470   6.4883610  70.2711910  93.5947070   7.9209600
  69.4205500  93.2952820   8.2418670  70.1113700  93.8389080   7.0093420
  67.3661620  95.0948820  10.0208390  67.6915030  94.2612570   9.6810620
  68.1541950  95.6177340  10.1686720  63.0213490  90.0516930   3.0467220
  63.3185820  90.9579760   2.9659240  63.5699050  89.5635710   2.4326790
  63.2151020  95.5288750   9.5819140  63.1194620  94.5883480   9.4319540
  64.0583000  95.7503820   9.1867210  58.3461560  91.9402420   7.7352920
  57.9524950  92.7877630   7.9425700  57.6579960  91.3028790   7.9261560
  64.9206610  92.0237390  10.8049660  64.2304930  91.8309590  11.4395750
  65.6638910  92.3072030  11.3373960  55.6478610  89.8630880   1.7683000
  55.3591660  90.4333740   2.4807980  56.3924370  89.3835330   2.1314230
  67.1969580  95.8635830   3.6403580  66.4650700  96.3722640   3.9893680
  66.7993920  95.0465810   3.3392360  67.6595490  91.3169510   3.0526520
  67.6768230  91.7678160   3.8968370  67.4111070  90.4175150   3.2659960
  71.0866240  88.7301690   8.8912900  71.4112010  87.9991350   9.4170880
  71.1222750  88.4115330   7.9893890  63.9354940  96.5991810   3.7921480
  64.3025070  96.1250380   4.5382820  63.7460000  97.4733380   4.1329820
  61.7254310  95.6400450   6.1105690  61.4211380  96.5192430   6.3356050
  62.6800770  95.7000240   6.1463130  57.7818040  96.4803190   7.2577050
  57.4232980  97.1457040   7.8450390  57.4872600  95.6486740   7.6289670
  60.9831160  96.9387430  10.1416600  60.6831300  97.0844610   9.2444420
  61.7542400  96.3792720  10.0489990  56.3566610  89.9696430   7.9349150
  55.6425130  90.1693350   8.5401760  56.7761650  89.1936000   8.3063950
  67.8505390  92.4618740   5.6850600  68.2186210  91.6413950   6.0130170
  66.9903590  92.5220630   6.1006250  64.8107380  95.1158330   5.9088570
  65.3092630  95.5904150   6.5740420  64.9530330  94.1921850   6.1158600
  72.0174240  91.3326290   6.7516960  71.5147840  92.0731690   7.0910770
  72.8330900  91.7210290   6.4353750  56.5095450  97.5119060   9.6771340
  57.0134470  96.9326340  10.2487570  55.7702870  97.7959290  10.2147710
  58.5418530  95.6548650  10.5721410  58.5823870  95.3562520  11.4806640
  59.3964030  96.0556260  10.4128930  60.4824340  94.2340750   8.5395900
  59.9520800  93.7431700   7.9119240  61.1512410  94.6624950   8.0053830
  69.8524570  96.0406370  10.3076240  70.4345340  95.2858690  10.2196720
  70.0286340  96.5713810   9.5307720  60.9696640  91.2003120   8.6193190
  60.8753510  90.5823870   7.8944060  60.3894030  91.9269410   8.3923100
  63.7358080  89.7576360   5.6520580  63.2875380  89.7800620   4.8066130
  63.1023280  89.3595380   6.2490880  66.4781530  96.3846870   7.6570860
  66.5977740  95.7888010   8.3965700  67.3375530  96.4216560   7.2372160
  68.8169430  96.9384060   6.2333370  68.2904650  97.4626680   5.6298510
  69.1600770  97.5711450   6.8643100  63.2450300  92.9268220   8.9146680
  63.8349990  92.6184070   9.6024500  62.4270540  92.4547970   9.0706580
  68.0643730  92.5434030   9.1479700  67.3759250  91.8815570   9.0829690
  68.7849750  92.0972300   9.5928160  57.6105120  97.2852890   4.5884870
  57.9778160  97.1980290   5.4680890  57.0415940  96.5219440   4.4891730
  72.4108980  95.7537270   7.6015340  72.1795070  95.5250020   6.7013290
  72.6713530  96.6736820   7.5560230  57.1621120  94.1961980   8.4943290
  56.2677170  94.1628740   8.8337000  57.7018670  94.3948770   9.2594540
  70.8497050  90.9793700  10.3795040  71.7267230  90.9877100  10.7629040
  70.8617890  90.2424540   9.7687390  72.4750040  94.9163110   4.7902610
  71.5252750  94.8826650   4.9047600  72.6563050  95.8263220   4.5552380
  57.6660830  88.4710310   2.8426510  58.3137020  87.9207690   2.4021670
  58.0862670  88.7253460   3.6642320  71.5613170  88.6651670   6.1996150
  72.1985390  89.2785810   6.5655340  71.7088060  88.7012330   5.2545380
  57.4192830  88.6265980   5.5851830  57.0707650  89.0829800   6.3510010
  57.0880530  87.7323110   5.6674260  64.9317650  89.8177860   9.1071250
  64.8706540  90.4099690   9.8566660  65.8718030  89.7103820   8.9621510
  67.5692210  89.4747920   8.7463540  68.1832620  89.7927210   8.0844620
  68.1141770  88.9896510   9.3659400  58.0913470  88.1542180   8.8602600
  58.6396460  87.9730230   8.0968710  58.1568780  87.3636290   9.3958910
  68.3100250  88.0380060   5.0732830  67.4360090  88.3715170   4.8705760
  68.2011000  87.5653240   5.8984700  69.2172230  90.2450930   6.4574550
  68.8885590  89.4302690   6.0776280  70.1654530  90.2020740   6.3340240
  66.0575070  88.9549900   4.0125740  65.2746860  89.4295400   4.2922500
  65.7638000  88.0504730   3.9038920  62.0934030  88.8020550  10.5639310
  61.8118300  89.3054150   9.8000130  62.4753730  88.0042300  10.1981440
  68.6949490  88.2174130  11.1419780  68.5814940  88.5368740  12.0371300
  69.5119230  88.6186640  10.8457060  67.6007640  77.4623110  56.6028480
  67.5201690  76.5477720  56.3320190  67.1872060  77.9590180  55.8968190
  69.7533110  83.6462320  57.2636880  69.2914640  82.8749560  57.5924050
  70.5658660  83.6728390  57.7689330  58.1583460  74.5123830  53.1455900
  57.2700160  74.8539800  53.0435780  58.4424650  74.3124150  52.2536730
  65.9796420  85.9320330  56.8840870  65.3607860  86.3877830  56.3135310
  66.8348200  86.0871790  56.4830570  60.3344850  73.0955330  54.1794280
  60.4411600  73.9959060  54.4863040  59.4237210  73.0473300  53.8888930
  69.9863960  72.2180140  55.6505180  70.8073580  71.7276710  55.6930660
  70.0198040  72.8077800  56.4037020  66.8459770  80.8159570  54.2772780
  66.2277040  81.2809020  53.7135500  67.3583020  81.5087050  54.6942290
  56.2142970  81.5016100  51.6512410  55.8370950  81.9903200  50.9197310
  56.4716040  82.1741380  52.2818940  63.8231900  69.9032490  57.1097920
  64.1306880  69.3479380  56.3933420  62.8932600  70.0376950  56.9270910
  70.6692380  82.3416000  54.4895550  70.5588710  81.3990330  54.6144970
  70.6660630  82.7031640  55.3758310  66.2112660  77.9681320  53.8458040
  65.2841940  77.9018700  54.0746510  66.3637480  78.9061450  53.7313280
  66.1981740  74.2398320  50.8425200  65.2585410  74.4012280  50.9277660
  66.5165000  74.9584000  50.2961190  70.2409950  79.5301620  54.3493290
  69.6222370  79.1921170  53.7019590  70.2234400  78.8861380  55.0572480
  61.8169300  78.4946060  56.6277770  61.4126300  77.7823310  56.1323670
  61.9032420  78.1499300  57.5165810  68.4174650  78.7688430  51.3566040
  68.8567930  77.9310860  51.2103860  69.1303070  79.4017830  51.4430180
  66.5270030  83.7084500  55.3247280  66.9665940  84.4508830  54.9102670
  66.4656920  83.9511070  56.2486240  71.9991790  70.0231240  49.6707080
  71.6864450  70.1158070  50.5706150  72.7604260  70.6012270  49.6204510
  58.5173930  77.3891040  54.1284420  58.3971530  78.1153130  53.5165690
  58.2074820  76.6193950  53.6512330  57.4006930  82.2606370  56.3459240
  56.9935010  82.4020960  55.4912840  58.2919940  81.9766530  56.1430450
  69.1940210  86.6953620  52.6810290  69.0341350  86.4056560  53.5792120
  69.0286920  85.9193750  52.1455520  61.6728590  86.4752150  54.4581910
  61.4971070  85.5587690  54.2449710  60.8184330  86.8339440  54.6979710
  68.8966340  84.2041180  51.2408290  68.2031500  84.2018470  50.5810570
  69.6389200  83.7800500  50.8102460  68.4616270  85.8303890  55.3156780
  68.9173220  85.0493270  55.6295400  68.8008790  86.5410710  55.8597960
  60.9837590  70.7326110  57.5108090  60.5405740  71.5135650  57.1792610
  61.5422580  71.0556000  58.2179030  64.0996410  70.3536810  52.3913920
  63.4750590  70.3496680  53.1167230  64.0126530  69.4867770  51.9949890
  60.7751810  75.8559680  55.2389340  60.5492730  75.6396850  56.1435960
  59.9944340  76.2888140  54.8935310  68.0049570  75.8623050  53.8379990
  67.4058460  76.5858850  53.6543610  68.5529180  75.7999830  53.0556440
  66.6114440  74.4986590  55.8683270  67.0044010  74.8158790  55.0551960
  66.9731290  73.6198470  55.9827790  55.8348840  75.0307510  49.3016190
  55.7523510  75.9738270  49.4431180  55.4831900  74.8882420  48.4228540
  63.6346970  73.7646540  58.3686540  63.6383030  73.3236490  57.5191080
  64.5298090  74.0863870  58.4758360  59.4849350  73.6473030  57.3280750
  59.1449400  74.1248260  58.0847800  58.7226670  73.1938150  56.9681850
  63.6967120  74.7658620  51.3593300  63.8179940  74.7245100  52.3079120
  63.3115630  75.6282770  51.2040030  62.7088620  77.0759760  50.7576600
  62.1405520  76.6278010  50.1312510  63.4177620  77.4352540  50.2241750
  56.7995430  72.5692010  56.2445420  56.5142350  72.2047680  57.0824040
  56.7374290  71.8372470  55.6308560  60.2536100  81.0717950  53.0303010
  59.4798360  80.5315570  52.8701730  60.9830730  80.5524560  52.6920770
  66.4734020  71.4621270  52.9658790  65.6598630  70.9634440  52.8904100
  66.2795970  72.3019520  52.5495140  69.1882410  75.8340920  51.2620950
  70.0762030  76.1458150  51.0872290  69.1587500  74.9613170  50.8701530
  60.2973500  80.7398330  56.6681820  60.8152170  79.9366590  56.6138710
  59.8457520  80.6777470  57.5098650  65.1843000  82.0064610  51.9409120
  65.5258700  82.7506840  51.4452440  64.3555710  82.3195730  52.3033950
  71.4596680  77.1452760  50.7300810  71.3760400  77.5766980  49.8797250
  72.1790870  77.6051110  51.1627630  72.4883930  83.9995020  53.4582940
  71.8460090  83.3450640  53.7326660  72.1014590  84.4050110  52.6823610
  68.0670410  81.3280450  57.3054630  68.4194230  80.7308580  56.6456000
  67.1832740  81.0024680  57.4762880  64.1533690  82.0878140  54.7125040
  64.8404820  82.6347350  55.0932630  63.3666110  82.6318870  54.7474650
  56.2926090  77.7050960  50.2042120  57.1620940  77.9875760  50.4878040
  55.8016410  78.5186830  50.0890930  63.4560900  79.0924170  54.3250400
  63.9123680  79.9029420  54.5510590  63.1049110  78.7747310  55.1568890
  59.3572680  69.4361820  54.7972920  59.2287310  69.4279720  55.7457840
  58.5334700  69.7744910  54.4463930  70.8781310  82.8911480  49.9959290
  70.6518890  82.1741920  50.5883930  70.4877510  82.6423920  49.1581040
  56.6597340  86.9178340  50.7703750  57.0194980  87.5167680  50.1161020
  56.5189680  87.4638230  51.5438780  70.4597560  80.8083420  51.6573450
  70.1719260  81.2696110  52.4451330  71.2549730  80.3481190  51.9257670
  62.6765960  84.3009540  51.5877420  62.6676060  85.0339230  50.9721930
  61.7564320  84.0541120  51.6804380  58.2772600  79.5224430  52.3324180
  57.6700550  80.2623330  52.3419480  58.7521950  79.6123790  51.5062380
  71.2167420  72.6432190  52.8168630  70.5880580  72.7477860  52.1026860
  70.7219340  72.8628970  53.6062510  65.6625560  84.3637780  50.2502610
  65.7637540  84.1601770  49.3204590  64.7627300  84.1096060  50.4550390
  63.1851450  74.9218140  54.2326510  62.4767600  75.3904480  54.6740120
  63.4695930  74.2640150  54.8671700  67.2166880  71.6468800  55.6722300
  67.0934660  71.6654930  54.7231810  68.1651440  71.6947740  55.7920700
  64.3043670  86.8824100  54.9450280  64.5585170  86.8445490  54.0229650
  63.3556150  86.7557430  54.9378530  61.3886470  73.2303220  51.6077220
  62.2377000  73.6673370  51.5417410  61.0217740  73.5423480  52.4349280
  70.3096250  77.8015980  56.5208790  69.3686390  77.8166210  56.6956480
  70.6240320  77.0151940  56.9669090  60.2877890  79.4835580  50.0812750
  61.0541160  79.3716940  50.6438180  60.3652580  78.7873550  49.4289520
  58.9824650  76.9160650  50.7645640  59.0628240  75.9688160  50.8763040
  59.8744400  77.2467530  50.8706300  59.7839360  87.0656040  57.8680180
  60.5201840  86.5171500  58.1388750  60.1680280  87.9312050  57.7286170
  56.6684840  83.1329610  53.7421690  55.7424620  83.3750750  53.7327100
  57.1341270  83.9603870  53.6206440  62.8941670  86.2386350  49.6905750
  63.6870280  86.5275180  49.2387540  62.3746020  85.8078520  49.0118230
  71.9471840  85.4656480  51.1142490  71.6613350  85.0521620  50.2996670
  71.7491390  86.3944190  50.9943010  63.4119070  81.4589760  49.5548100
  63.3069710  80.8442110  50.2809480  63.2443290  80.9355650  48.7711110
  66.6521800  80.5209790  50.1590090  66.1031900  80.9679090  50.8032830
  67.2741060  80.0159040  50.6827760  62.3196920  79.4800710  52.0555390
  62.7413340  79.3140580  52.8986780  62.4447760  78.6700940  51.5610530
  64.8324560  78.5038320  49.3032490  65.3530220  77.7887340  48.9373640
  65.4792960  79.1424190  49.6033000  61.2155820  75.5533940  49.0013550
  61.0144880  74.6901300  49.3626890  61.0447870  75.4667300  48.0635150
  68.6944130  70.3642170  51.5300430  68.9746420  69.5210070  51.8859850
  67.9209860  70.5965280  52.0439180  60.0138620  72.6534560  48.9891430
  60.3164520  72.6601990  48.0810580  60.7533210  72.3032420  49.4859090
  63.2323550  71.5969180  49.9747630  62.8845550  70.9193170  49.3950080
  63.4336320  71.1358690  50.7891020  65.3972590  86.5849930  51.5934230
  66.2923380  86.9234900  51.6152990  65.4290220  85.8629340  50.9658510
  59.0368750  81.9576980  49.8221230  59.4743620  82.5006650  50.4778810
  59.5216480  81.1323930  49.8317570  56.2514550  84.7466010  57.2741490
  56.5817560  83.8787070  57.0420130  56.6805550  84.9524530  58.1046450
  60.8476470  83.0775020  54.9343460  60.5472010  82.9539990  55.8347370
  60.7413960  82.2183610  54.5259190  73.6168390  82.8571420  49.6370140
  72.7861350  82.9248070  50.1077370  73.7940220  83.7475540  49.3337000
  73.0724850  79.6018900  52.1404340  73.8343760  80.1715550  52.2464030
  73.0879220  79.0346100  52.9112650  56.5729190  78.1256830  56.3712000
  55.9178030  77.8568470  55.7271700  57.4107140  78.0161310  55.9213980
  74.0784820  80.4569000  56.9846270  74.4493650  79.6736320  56.5782240
  74.7186750  81.1458100  56.8063570  73.1244020  79.8953270  49.2976860
  73.3992860  80.8032150  49.1696080  72.9354760  79.8315800  50.2338850
  69.5219630  72.9198120  50.5930490  69.9404510  72.7329100  49.7527150
  69.2155690  72.0677170  50.9033420  73.0209360  77.8322260  54.2906290
  72.6452960  77.0650190  53.8587580  72.2912480  78.2144960  54.7781220
  55.7867270  75.3355760  52.3137330  54.8831350  75.5985960  52.1388990
  56.2707890  75.6066930  51.5337290  72.2960320  76.0579750  57.5913530
  72.8197800  75.5642400  56.9603700  72.8819740  76.1930110  58.3361100
  58.3294480  74.3921300  50.2231710  59.0386180  73.9704520  49.7378990
  57.6134420  74.4596530  49.5915060  57.9768640  70.4460630  49.2634360
  58.6996770  70.9869570  49.5815580  58.2493160  70.1724050  48.3875900
  71.7860290  75.3153100  53.5305940  72.2819410  75.0823970  54.3154820
  71.5876360  74.4764940  53.1143580  73.2147450  73.9514050  56.0643620
  73.1046730  73.7970090  57.0025890  73.9755040  73.4234990  55.8219030
  74.1037720  71.7821970  49.3049760  75.0287030  71.6503150  49.0968050
  74.0813510  71.8614790  50.2586210  74.1776210  72.5532630  51.9306470
  73.3827710  72.4877750  52.4599380  74.3819490  73.4883270  51.9191820
  71.1194630  86.5924180  55.9244860  71.7153700  86.2708750  55.2479280
  71.3772780  86.1196000  56.7158130  70.6096140  70.8829510  58.3805300
  71.0504230  70.8274610  57.5326900  70.3403730  71.7987520  58.4515480
  72.4734710  70.5144750  56.3914120  72.4123110  69.5705970  56.2445140
  73.2526740  70.6224840  56.9367580  56.7787460  86.6537110  55.3538070
  56.6109500  86.0207790  56.0519960  55.9121970  86.8596510  55.0032260
  57.4015480  70.4853890  52.8569930  58.1594840  70.5982770  52.2833960
  56.9392650  71.3223090  52.8113360  63.9429290  72.5993160  55.8472240
  63.1303800  72.2250050  55.5068120  64.4470930  71.8438240  56.1493430
  68.4454270  69.2635610  57.0855310  69.0483640  69.8355820  57.5603830
  67.7047260  69.8275050  56.8629210  71.5888870  69.6657170  52.3595590
  71.7839500  70.5640620  52.6263020  70.8018740  69.4344250  52.8528540
  58.3850160  85.3470340  52.7988210  57.8597780  85.7278370  52.0950170
  58.3094740  85.9721110  53.5197920  59.7740630  71.0117940  51.3971900
  60.3033390  70.2247740  51.2679850  60.4068950  71.6909130  51.6307430
  61.9678470  70.7493080  54.4517290  61.3381210  70.0480390  54.6187420
  61.4283610  71.5097210  54.2350450  73.1415480  86.9057880  54.1202150
  73.3167670  86.2195620  53.4763070  72.4437050  87.4304930  53.7278820
  60.9843130  87.2952720  51.6737460  61.7161950  87.0112000  51.1261350
  61.2436800  87.0566000  52.5636840  60.1457920  83.4117450  51.6783790
  59.5166800  83.8802550  52.2269620  60.2605750  82.5666670  52.1129980
  67.6007640  77.4623110  37.8284990  67.5201690  76.5477720  37.5576700
  67.1872060  77.9590180  37.1224700  65.7325680  79.2402130  39.7094260
  64.9567780  78.7602570  39.9992830  66.3838610  78.5607780  39.5350420
  59.7491510  79.5521940  40.5870020  58.9176390  79.2970650  40.9866530
  60.3572490  79.6232710  41.3227940  69.7533110  83.6462320  38.4893390
  69.2914640  82.8749560  38.8180560  70.5658660  83.6728390  38.9945840
  59.7292770  83.5862030  40.7828040  60.0320810  82.6959770  40.6038260
  60.4736360  84.1432250  40.5550290  56.1216470  77.1129480  40.2552110
  56.6932580  76.3451680  40.2555750  56.1218010  77.4118240  39.3458720
  65.9796420  85.9320330  38.1097380  65.3607860  86.3877830  37.5391820
  66.8348200  86.0871790  37.7087080  65.1734670  81.9159320  39.7164420
  65.1042950  80.9749260  39.5553550  65.9354530  82.0060730  40.2886990
  57.3641340  72.5213840  42.0421040  57.1844180  71.6239590  42.3223800
  56.9621420  73.0685710  42.7167990  66.2039840  74.7229700  39.9433350
  66.5804660  73.8501580  39.8307020  66.1059350  75.0588400  39.0523790
  69.9863960  72.2180140  36.8761690  70.8073580  71.7276710  36.9187170
  70.0198040  72.8077800  37.6293530  57.9828010  75.0174340  40.6503380
  58.6638120  75.2812710  41.2690780  57.6676060  74.1775210  40.9841390
  62.1752580  76.0641700  39.7375970  62.6830800  76.5622670  40.3780990
  62.7065820  75.2876900  39.5615330  74.2763510  74.2346890  43.4405320
  73.5715680  74.6228600  42.9220430  74.5421430  74.9297180  44.0426250
  60.4588680  70.7040260  44.0039390  60.4607120  71.2212650  43.1985290
  59.6292990  70.2270440  43.9809320  66.8459770  80.8159570  35.5029290
  66.2277040  81.2809020  34.9392010  67.3583020  81.5087050  35.9198800
  61.7091530  80.3435440  42.1812890  61.3760910  80.9704360  42.8233960
  61.8858210  80.8697320  41.4014560  70.2225440  74.1580520  39.6489230
  69.5181010  74.4465410  40.2292340  70.5837600  74.9680630  39.2888790
  60.1404010  72.4150220  42.0109840  60.4820820  73.2592270  41.7163710
  59.2019820  72.5633960  42.1275180  60.9210630  82.3116240  43.9962070
  61.5384630  82.9867320  43.7146520  60.0603750  82.7204220  43.9049570
  56.2142970  81.5016100  32.8768920  55.8370950  81.9903200  32.1453820
  56.4716040  82.1741380  33.5075450  71.8388220  83.7755650  41.9116710
  71.1551740  84.4454760  41.9033380  72.3782510  83.9736300  41.1461570
  73.2912360  73.6035310  40.0398440  72.3437270  73.6374290  40.1713870
  73.6162350  74.4174260  40.4247800  63.8231900  69.9032490  38.3354430
  64.1306880  69.3479380  37.6189930  62.8932600  70.0376950  38.1527420
  69.3746960  85.6199780  40.6261890  69.3874120  85.2162070  39.7584150
  68.8222180  86.3947070  40.5223320  70.6692380  82.3416000  35.7152060
  70.5588710  81.3990330  35.8401480  70.6660630  82.7031640  36.6014820
  68.7732400  80.5229620  41.9544500  69.1901190  80.3089730  41.1197960
  69.4972220  80.7802410  42.5253120  66.2112660  77.9681320  35.0714550
  65.2841940  77.9018700  35.3003020  66.3637480  78.9061450  34.9569790
  72.7194500  78.9216840  42.0460740  71.8913130  78.9909930  41.5710870
  73.3144980  79.5071150  41.5776570  70.2409950  79.5301620  35.5749800
  69.6222370  79.1921170  34.9276100  70.2234400  78.8861380  36.2828990
  69.6836510  75.7086160  42.9915610  69.2707690  76.5339870  43.2455600
  68.9512460  75.1231200  42.7991970  61.8169300  78.4946060  37.8534280
  61.4126300  77.7823310  37.3580180  61.9032420  78.1499300  38.7422320
  62.2851000  82.1813620  40.0173490  61.9879290  81.5759090  39.3381270
  63.2350820  82.2190930  39.9062850  60.5297920  75.2689270  41.6333320
  61.0812510  75.3784610  40.8586570  61.0441430  75.6426870  42.3488550
  70.3736610  85.7545490  43.6796590  69.8967170  86.5617680  43.4869200
  69.6898400  85.1023820  43.8322800  61.3769430  81.9195310  46.6681290
  60.4797960  82.1435280  46.9154690  61.4022300  82.0430250  45.7192690
  68.4174650  78.7688430  32.5822550  68.8567930  77.9310860  32.4360370
  69.1303070  79.4017830  32.6686690  60.2040650  78.7908630  45.2438660
  60.0648420  79.6631430  45.6126060  59.3222010  78.4481440  45.0986600
  66.5270030  83.7084500  36.5503790  66.9665940  84.4508830  36.1359180
  66.4656920  83.9511070  37.4742750  62.0021000  84.7330330  47.4523810
  61.9736430  85.1373280  46.5852240  61.8385970  83.8040690  47.2895410
  71.9991790  70.0231240  30.8963590  71.6864450  70.1158070  31.7962660
  72.7604260  70.6012270  30.8461020  73.9535820  85.5157430  48.7487980
  74.4295540  85.9940320  49.4277060  74.5742980  85.4474920  48.0233480
  56.1559300  80.5606180  41.1609570  56.2339720  80.6954950  40.2165290
  56.7700980  79.8522070  41.3537690  57.4006930  82.2606370  37.5715750
  56.9935010  82.4020960  36.7169350  58.2919940  81.9766530  37.3686960
  73.3569070  82.7070280  45.9087990  73.4832130  82.4682160  44.9905170
  73.3990450  81.8754820  46.3810070  67.2185810  86.4098280  44.4782800
  67.7330480  86.3206290  45.2805230  66.3754890  86.7557980  44.7710710
  69.1940210  86.6953620  33.9066800  69.0341350  86.4056560  34.8048630
  69.0286920  85.9193750  33.3712030  61.6728590  86.4752150  35.6838420
  61.4971070  85.5587690  35.4706220  60.8184330  86.8339440  35.9236220
  68.8966340  84.2041180  32.4664800  68.2031500  84.2018470  31.8067080
  69.6389200  83.7800500  32.0358970  68.4616270  85.8303890  36.5413290
  68.9173220  85.0493270  36.8551910  68.8008790  86.5410710  37.0854470
  73.2093080  74.7602740  46.8737730  72.5937350  75.2682410  46.3453190
  72.8889500  73.8601070  46.8163670  56.2118820  81.6020350  43.7004030
  56.3749860  81.1325710  42.8823400  56.6771270  81.0943910  44.3652870
  60.9837590  70.7326110  38.7364600  60.5405740  71.5135650  38.4049120
  61.5422580  71.0556000  39.4435540  65.2707400  73.5994630  44.3399920
  64.8086770  73.8077650  45.1519860  64.8685510  72.7853980  44.0370590
  70.2711910  74.8203580  45.4696580  69.4205500  74.5209330  45.7905650
  70.1113700  75.0645590  44.5580400  67.3661620  76.3205330  47.5695370
  67.6915030  75.4869080  47.2297600  68.1541950  76.8433850  47.7173700
  63.0213490  71.2773440  40.5954200  63.3185820  72.1836270  40.5146220
  63.5699050  70.7892220  39.9813770  68.0049570  75.8623050  35.0636500
  67.4058460  76.5858850  34.8800120  68.5529180  75.7999830  34.2812950
  63.2151020  76.7545260  47.1306120  63.1194620  75.8139990  46.9806520
  64.0583000  76.9760330  46.7354190  66.6114440  74.4986590  37.0939780
  67.0044010  74.8158790  36.2808470  66.9731290  73.6198470  37.2084300
  58.3461560  73.1658930  45.2839900  57.9524950  74.0134140  45.4912680
  57.6579960  72.5285300  45.4748540  64.9206610  73.2493900  48.3536640
  64.2304930  73.0566100  48.9882730  65.6638910  73.5328540  48.8860940
  55.6478610  71.0887390  39.3169980  55.3591660  71.6590250  40.0294960
  56.3924370  70.6091840  39.6801210  67.1969580  77.0892340  41.1890560
  66.4650700  77.5979150  41.5380660  66.7993920  76.2722320  40.8879340
  63.6346970  73.7646540  39.5943050  63.6383030  73.3236490  38.7447590
  64.5298090  74.0863870  39.7014870  59.4849350  73.6473030  38.5537260
  59.1449400  74.1248260  39.3104310  58.7226670  73.1938150  38.1938360
  67.6595490  72.5426020  40.6013500  67.6768230  72.9934670  41.4455350
  67.4111070  71.6431660  40.8146940  71.0866240  69.9558200  46.4399880
  71.4112010  69.2247860  46.9657860  71.1222750  69.6371840  45.5380870
  57.7857800  80.9771780  45.8599840  57.4012590  80.3365450  46.4582800
  58.0969990  81.6807900  46.4294570  63.9354940  77.8248320  41.3408460
  64.3025070  77.3506890  42.0869800  63.7460000  78.6989890  41.6816800
  61.7254310  76.8656960  43.6592670  61.4211380  77.7448940  43.8843030
  62.6800770  76.9256750  43.6950110  60.2536100  81.0717950  34.2559520
  59.4798360  80.5315570  34.0958240  60.9830730  80.5524560  33.9177280
  71.0124080  80.0683310  40.0485910  71.7323200  80.5638600  39.6582020
  70.8105900  79.3901200  39.4039780  66.3942880  80.1392370  45.9354910
  66.3280190  79.2188040  45.6812500  65.7648020  80.2367810  46.6499550
  69.1882410  75.8340920  32.4877460  70.0762030  76.1458150  32.3128800
  69.1587500  74.9613170  32.0958040  60.2973500  80.7398330  37.8938330
  60.8152170  79.9366590  37.8395220  59.8457520  80.6777470  38.7355160
  65.1843000  82.0064610  33.1665630  65.5258700  82.7506840  32.6708950
  64.3555710  82.3195730  33.5290460  57.7818040  77.7059700  44.8064030
  57.4232980  78.3713550  45.3937370  57.4872600  76.8743250  45.1776650
  60.9831160  78.1643940  47.6903580  60.6831300  78.3101120  46.7931400
  61.7542400  77.6049230  47.5976970  66.3259610  82.9612940  45.6858710
  66.3404150  82.0293900  45.4677620  65.6184710  83.0472700  46.3248480
  71.4596680  77.1452760  31.9557320  71.3760400  77.5766980  31.1053760
  72.1790870  77.6051110  32.3884140  72.5370820  79.6020280  45.0327290
  71.8119010  80.1949060  44.8356680  73.0646280  79.5943820  44.2340660
  72.4883930  83.9995020  34.6839450  71.8460090  83.3450640  34.9583170
  72.1014590  84.4050110  33.9080120  68.0670410  81.3280450  38.5311140
  68.4194230  80.7308580  37.8712510  67.1832740  81.0024680  38.7019390
  64.1533690  82.0878140  35.9381550  64.8404820  82.6347350  36.3189140
  63.3666110  82.6318870  35.9731160  63.4560900  79.0924170  35.5506910
  63.9123680  79.9029420  35.7767100  63.1049110  78.7747310  36.3825400
  65.7593510  84.6030510  42.7799210  66.4035730  84.8089890  43.4572630
  66.1222950  83.8418910  42.3270060  67.0325590  82.6062860  41.4976660
  67.6747820  81.9056020  41.6108830  67.5574940  83.3861300  41.3173550
  70.8781310  82.8911480  31.2215800  70.6518890  82.1741920  31.8140440
  70.4877510  82.6423920  30.3837550  68.8063210  83.4057760  44.7012720
  69.1419450  83.9924450  45.3790640  67.8863550  83.2750470  44.9310510
  56.6597340  86.9178340  31.9960260  57.0194980  87.5167680  31.3417530
  56.5189680  87.4638230  32.7695290  56.3566610  71.1952940  45.4836130
  55.6425130  71.3949860  46.0888740  56.7761650  70.4192510  45.8550930
  70.4597560  80.8083420  32.8829960  70.1719260  81.2696110  33.6707840
  71.2549730  80.3481190  33.1514180  56.6439200  85.1833200  46.4702660
  56.7530320  84.2427940  46.3298050  55.9919760  85.4487950  45.8216390
  64.6351790  83.4549090  47.8700780  64.3148660  82.7358330  48.4146470
  63.9610150  84.1304160  47.9436840  62.6765960  84.3009540  32.8133930
  62.6676060  85.0339230  32.1978440  61.7564320  84.0541120  32.9060890
  67.8505390  73.6875250  43.2337580  68.2186210  72.8670460  43.5617150
  66.9903590  73.7477140  43.6493230  71.2167420  72.6432190  34.0425140
  70.5880580  72.7477860  33.3283370  70.7219340  72.8628970  34.8319020
  65.6625560  84.3637780  31.4759120  65.7637540  84.1601770  30.5461100
  64.7627300  84.1096060  31.6806900  64.8107380  76.3414840  43.4575550
  65.3092630  76.8160660  44.1227400  64.9530330  75.4178360  43.6645580
  67.2166880  71.6468800  36.8978810  67.0934660  71.6654930  35.9488320
  68.1651440  71.6947740  37.0177210  64.3043670  86.8824100  36.1706790
  64.5585170  86.8445490  35.2486160  63.3556150  86.7557430  36.1635040
  72.0174240  72.5582800  44.3003940  71.5147840  73.2988200  44.6397750
  72.8330900  72.9466800  43.9840730  70.3096250  77.8015980  37.7465300
  69.3686390  77.8166210  37.9212990  70.6240320  77.0151940  38.1925600
  60.2877890  79.4835580  31.3069260  61.0541160  79.3716940  31.8694690
  60.3652580  78.7873550  30.6546030  72.3121830  84.9724830  39.4219560
  72.4369250  85.7956000  39.8943370  73.1787390  84.7615560  39.0743710
  59.7839360  87.0656040  39.0936690  60.5201840  86.5171500  39.3645260
  60.1680280  87.9312050  38.9542680  56.6684840  83.1329610  34.9678200
  55.7424620  83.3750750  34.9583610  57.1341270  83.9603870  34.8462950
  58.7897640  86.2502110  48.2822270  59.5910370  86.5714160  48.6957670
  58.2749460  85.8897690  49.0042180  62.8941670  86.2386350  30.9162260
  63.6870280  86.5275180  30.4644050  62.3746020  85.8078520  30.2374740
  67.6262270  82.3581980  48.2297680  67.0200430  82.3813580  47.4893430
  67.3216380  81.6265020  48.7664930  69.0562640  86.0862270  46.8407090
  70.0084390  86.0020290  46.7907330  68.9090860  86.7503980  47.5140880
  71.9471840  85.4656480  32.3399000  71.6613350  85.0521620  31.5253180
  71.7491390  86.3944190  32.2199520  56.5095450  78.7375570  47.2258320
  57.0134470  78.1582850  47.7974550  55.7702870  79.0215800  47.7634690
  63.4119070  81.4589760  30.7804610  63.3069710  80.8442110  31.5065990
  63.2443290  80.9355650  29.9967620  63.5633390  80.1446560  46.7593840
  62.7979060  80.7131560  46.6748510  63.7449350  79.8522770  45.8662070
  66.6521800  80.5209790  31.3846600  66.1031900  80.9679090  32.0289340
  67.2741060  80.0159040  31.9084270  70.7056740  81.8751890  47.3168860
  71.4466210  82.2127650  46.8136320  69.9429420  82.0443950  46.7638630
  58.5418530  76.8805160  48.1208390  58.5823870  76.5819030  49.0293620
  59.3964030  77.2812770  47.9615910  62.3196920  79.4800710  33.2811900
  62.7413340  79.3140580  34.1243290  62.4447760  78.6700940  32.7867040
  60.4824340  75.4597260  46.0882880  59.9520800  74.9688210  45.4606220
  61.1512410  75.8881460  45.5540810  64.8324560  78.5038320  30.5289000
  65.3530220  77.7887340  30.1630150  65.4792960  79.1424190  30.8289510
  69.3802400  79.9266720  45.8524070  69.7943420  80.0811800  46.7014490
  68.4453400  80.0521940  46.0149850  69.8524570  77.2662880  47.8563220
  70.4345340  76.5115200  47.7683700  70.0286340  77.7970320  47.0794700
  60.9696640  72.4259630  46.1680170  60.8753510  71.8080380  45.4431040
  60.3894030  73.1525920  45.9410080  63.7358080  70.9832870  43.2007560
  63.2875380  71.0057130  42.3553110  63.1023280  70.5851890  43.7977860
  64.1417630  79.8787200  43.8220000  64.5605740  80.7219930  43.6496240
  63.2226260  80.0159240  43.5926780  66.4781530  77.6103380  45.2057840
  66.5977740  77.0144520  45.9452680  67.3375530  77.6473070  44.7859140
  68.8169430  78.1640570  43.7820350  68.2904650  78.6883190  43.1785490
  69.1600770  78.7967960  44.4130080  61.9925050  86.1840210  44.9377730
  61.4546140  86.9086270  44.6186430  62.2459010  85.7070550  44.1475070
  63.2450300  74.1524730  46.4633660  63.8349990  73.8440580  47.1511480
  62.4270540  73.6804480  46.6193560  68.0643730  73.7690540  46.6966680
  67.3759250  73.1072080  46.6316670  68.7849750  73.3228810  47.1415140
  64.8487260  87.4191420  45.1964380  64.7745960  88.3226560  45.5036750
  63.9466100  87.1003320  45.1686450  65.3972590  86.5849930  32.8190740
  66.2923380  86.9234900  32.8409500  65.4290220  85.8629340  32.1915020
  59.0368750  81.9576980  31.0477740  59.4743620  82.5006650  31.7035320
  59.5216480  81.1323930  31.0574080  56.2514550  84.7466010  38.4998000
  56.5817560  83.8787070  38.2676640  56.6805550  84.9524530  39.3302960
  60.8476470  83.0775020  36.1599970  60.5472010  82.9539990  37.0603880
  60.7413960  82.2183610  35.7515700  56.7404760  85.6136600  41.2379630
  56.3035750  85.7937400  42.0703780  57.3082440  86.3711220  41.0961350
  72.3766940  85.1153600  45.5256940  71.7768930  85.1746160  44.7820860
  72.5060840  84.1758580  45.6553790  73.6168390  82.8571420  30.8626650
  72.7861350  82.9248070  31.3333880  73.7940220  83.7475540  30.5593510
  73.0724850  79.6018900  33.3660850  73.8343760  80.1715550  33.4720540
  73.0879220  79.0346100  34.1369160  56.5729190  78.1256830  37.5968510
  55.9178030  77.8568470  36.9528210  57.4107140  78.0161310  37.1470490
  74.0784820  80.4569000  38.2102780  74.4493650  79.6736320  37.8038750
  74.7186750  81.1458100  38.0320080  71.0618580  81.8405580  43.6233100
  70.2478420  82.2702740  43.8858890  71.4692780  82.4523990  43.0102150
  73.1244020  79.8953270  30.5233370  73.3992860  80.8032150  30.3952590
  72.9354760  79.8315800  31.4595360  69.5219630  72.9198120  31.8187000
  69.9404510  72.7329100  30.9783660  69.2155690  72.0677170  32.1289930
  73.0209360  77.8322260  35.5162800  72.6452960  77.0650190  35.0844090
  72.2912480  78.2144960  36.0037730  57.6105120  78.5109400  42.1371850
  57.9778160  78.4236800  43.0167870  57.0415940  77.7475950  42.0378710
  72.4108980  76.9793780  45.1502320  72.1795070  76.7506530  44.2500270
  72.6713530  77.8993330  45.1047210  57.1621120  75.4218490  46.0430270
  56.2677170  75.3885250  46.3823980  57.7018670  75.6205280  46.8081520
  70.8497050  72.2050210  47.9282020  71.7267230  72.2133610  48.3116020
  70.8617890  71.4681050  47.3174370  72.2960320  76.0579750  38.8170040
  72.8197800  75.5642400  38.1860210  72.8819740  76.1930110  39.5617610
  72.4750040  76.1419620  42.3389590  71.5252750  76.1083160  42.4534580
  72.6563050  77.0519730  42.1039360  71.7860290  75.3153100  34.7562450
  72.2819410  75.0823970  35.5411330  71.5876360  74.4764940  34.3400090
  57.6660830  69.6966820  40.3913490  58.3137020  69.1464200  39.9508650
  58.0862670  69.9509970  41.2129300  73.2147450  73.9514050  37.2900130
  73.1046730  73.7970090  38.2282400  73.9755040  73.4234990  37.0475540
  71.5613170  69.8908180  43.7483130  72.1985390  70.5042320  44.1142320
  71.7088060  69.9268840  42.8032360  74.1037720  71.7821970  30.5306270
  75.0287030  71.6503150  30.3224560  74.0813510  71.8614790  31.4842720
  74.1776210  72.5532630  33.1562980  73.3827710  72.4877750  33.6855890
  74.3819490  73.4883270  33.1448330  71.1194630  86.5924180  37.1501370
  71.7153700  86.2708750  36.4735790  71.3772780  86.1196000  37.9414640
  57.4192830  69.8522490  43.1338810  57.0707650  70.3086310  43.8996990
  57.0880530  68.9579620  43.2161240  59.0257200  83.0242090  47.2992000
  58.9826830  82.6535000  48.1806460  59.1568210  83.9619660  47.4393820
  62.7263230  84.5801680  42.9001720  62.4854590  84.8476240  42.0132240
  63.6665870  84.7507410  42.9552580  64.9317650  71.0434370  46.6558230
  64.8706540  71.6356200  47.4053640  65.8718030  70.9360330  46.5108490
  67.5692210  70.7004430  46.2950520  68.1832620  71.0183720  45.6331600
  68.1141770  70.2153020  46.9146380  73.9867390  86.5996060  43.7012360
  73.4925670  86.9964930  42.9839490  73.3780680  85.9745270  44.0949640
  58.0913470  69.3798690  46.4089580  58.6396460  69.1986740  45.6455690
  58.1568780  68.5892800  46.9445890  58.8645230  85.9704340  44.4189780
  58.2705550  85.8389040  45.1579820  58.8569070  85.1342480  43.9531880
  68.3100250  69.2636570  42.6219810  67.4360090  69.5971680  42.4192740
  68.2011000  68.7909750  43.4471680  69.2172230  71.4707440  44.0061530
  68.8885590  70.6559200  43.6263260  70.1654530  71.4277250  43.8827220
  71.6706840  87.2419480  40.9799100  71.2109810  87.9935290  40.6057120
  71.0419300  86.5225950  40.9213900  58.4957460  83.3362720  43.3697820
  57.7691520  82.7168010  43.3023770  58.5566610  83.7303330  42.4995900
  62.1002560  85.5507720  40.1547230  62.6167580  84.9395080  39.6295490
  62.7499940  86.0536500  40.6458240  64.8398060  86.4416210  40.9816210
  65.1275870  86.1870510  40.1049220  65.3521280  85.8893570  41.5721780
  66.0575070  70.1806410  41.5612720  65.2746860  70.6551910  41.8409480
  65.7638000  69.2761240  41.4525900  70.6096140  70.8829510  39.6061810
  71.0504230  70.8274610  38.7583410  70.3403730  71.7987520  39.6771990
  72.4734710  70.5144750  37.6170630  72.4123110  69.5705970  37.4701650
  73.2526740  70.6224840  38.1624090  56.7787460  86.6537110  36.5794580
  56.6109500  86.0207790  37.2776470  55.9121970  86.8596510  36.2288770
  68.4454270  69.2635610  38.3111820  69.0483640  69.8355820  38.7860340
  67.7047260  69.8275050  38.0885720  58.3850160  85.3470340  34.0244720
  57.8597780  85.7278370  33.3206680  58.3094740  85.9721110  34.7454430
  64.9070420  87.3632310  48.3484410  65.8337730  87.1276580  48.3920370
  64.8920850  88.1904310  47.8670440  73.1415480  86.9057880  35.3458660
  73.3167670  86.2195620  34.7019580  72.4437050  87.4304930  34.9535330
  62.0934030  70.0277060  48.1126290  61.8118300  70.5310660  47.3487110
  62.4753730  69.2298810  47.7468420  60.9843130  87.2952720  32.8993970
  61.7161950  87.0112000  32.3517860  61.2436800  87.0566000  33.7893350
  60.1457920  83.4117450  32.9040300  59.5166800  83.8802550  33.4526130
  60.2605750  82.5666670  33.3386490  68.6949490  69.4430640  48.6906760
  68.5814940  69.7625250  49.5858280  69.5119230  69.8443150  48.3944040
  71.4747980  86.5902170  48.1725450  72.2673300  86.0951400  47.9651410
  71.7681130  87.2692310  48.7801060  67.6007640  77.4623110  19.0541500
  67.5201690  76.5477720  18.7833210  67.1872060  77.9590180  18.3481210
  65.7325680  79.2402130  20.9350770  64.9567780  78.7602570  21.2249340
  66.3838610  78.5607780  20.7606930  59.7491510  79.5521940  21.8126530
  58.9176390  79.2970650  22.2123040  60.3572490  79.6232710  22.5484450
  69.7533110  83.6462320  19.7149900  69.2914640  82.8749560  20.0437070
  70.5658660  83.6728390  20.2202350  59.7292770  83.5862030  22.0084550
  60.0320810  82.6959770  21.8294770  60.4736360  84.1432250  21.7806800
  58.1583460  74.5123830  15.5968920  57.2700160  74.8539800  15.4948800
  58.4424650  74.3124150  14.7049750  56.1216470  77.1129480  21.4808620
  56.6932580  76.3451680  21.4812260  56.1218010  77.4118240  20.5715230
  65.9796420  85.9320330  19.3353890  65.3607860  86.3877830  18.7648330
  66.8348200  86.0871790  18.9343590  65.1734670  81.9159320  20.9420930
  65.1042950  80.9749260  20.7810060  65.9354530  82.0060730  21.5143500
  57.3641340  72.5213840  23.2677550  57.1844180  71.6239590  23.5480310
  56.9621420  73.0685710  23.9424500  66.2039840  74.7229700  21.1689860
  66.5804660  73.8501580  21.0563530  66.1059350  75.0588400  20.2780300
  60.3344850  73.0955330  16.6307300  60.4411600  73.9959060  16.9376060
  59.4237210  73.0473300  16.3401950  69.9863960  72.2180140  18.1018200
  70.8073580  71.7276710  18.1443680  70.0198040  72.8077800  18.8550040
  57.9828010  75.0174340  21.8759890  58.6638120  75.2812710  22.4947290
  57.6676060  74.1775210  22.2097900  62.1752580  76.0641700  20.9632480
  62.6830800  76.5622670  21.6037500  62.7065820  75.2876900  20.7871840
  74.2763510  74.2346890  24.6661830  73.5715680  74.6228600  24.1476940
  74.5421430  74.9297180  25.2682760  66.8459770  80.8159570  16.7285800
  66.2277040  81.2809020  16.1648520  67.3583020  81.5087050  17.1455310
  61.7091530  80.3435440  23.4069400  61.3760910  80.9704360  24.0490470
  61.8858210  80.8697320  22.6271070  70.2225440  74.1580520  20.8745740
  69.5181010  74.4465410  21.4548850  70.5837600  74.9680630  20.5145300
  60.1404010  72.4150220  23.2366350  60.4820820  73.2592270  22.9420220
  59.2019820  72.5633960  23.3531690  60.9210630  82.3116240  25.2218580
  61.5384630  82.9867320  24.9403030  60.0603750  82.7204220  25.1306080
  56.2142970  81.5016100  14.1025430  55.8370950  81.9903200  13.3710330
  56.4716040  82.1741380  14.7331960  71.8388220  83.7755650  23.1373220
  71.1551740  84.4454760  23.1289890  72.3782510  83.9736300  22.3718080
  73.2912360  73.6035310  21.2654950  72.3437270  73.6374290  21.3970380
  73.6162350  74.4174260  21.6504310  63.8231900  69.9032490  19.5610940
  64.1306880  69.3479380  18.8446440  62.8932600  70.0376950  19.3783930
  69.3746960  85.6199780  21.8518400  69.3874120  85.2162070  20.9840660
  68.8222180  86.3947070  21.7479830  70.6692380  82.3416000  16.9408570
  70.5588710  81.3990330  17.0657990  70.6660630  82.7031640  17.8271330
  68.7732400  80.5229620  23.1801010  69.1901190  80.3089730  22.3454470
  69.4972220  80.7802410  23.7509630  66.2112660  77.9681320  16.2971060
  65.2841940  77.9018700  16.5259530  66.3637480  78.9061450  16.1826300
  66.1981740  74.2398320  13.2938220  65.2585410  74.4012280  13.3790680
  66.5165000  74.9584000  12.7474210  72.7194500  78.9216840  23.2717250
  71.8913130  78.9909930  22.7967380  73.3144980  79.5071150  22.8033080
  70.2409950  79.5301620  16.8006310  69.6222370  79.1921170  16.1532610
  70.2234400  78.8861380  17.5085500  69.6836510  75.7086160  24.2172120
  69.2707690  76.5339870  24.4712110  68.9512460  75.1231200  24.0248480
  61.8169300  78.4946060  19.0790790  61.4126300  77.7823310  18.5836690
  61.9032420  78.1499300  19.9678830  62.2851000  82.1813620  21.2430000
  61.9879290  81.5759090  20.5637780  63.2350820  82.2190930  21.1319360
  60.5297920  75.2689270  22.8589830  61.0812510  75.3784610  22.0843080
  61.0441430  75.6426870  23.5745060  70.3736610  85.7545490  24.9053100
  69.8967170  86.5617680  24.7125710  69.6898400  85.1023820  25.0579310
  61.3769430  81.9195310  27.8937800  60.4797960  82.1435280  28.1411200
  61.4022300  82.0430250  26.9449200  68.4174650  78.7688430  13.8079060
  68.8567930  77.9310860  13.6616880  69.1303070  79.4017830  13.8943200
  60.2040650  78.7908630  26.4695170  60.0648420  79.6631430  26.8382570
  59.3222010  78.4481440  26.3243110  66.5270030  83.7084500  17.7760300
  66.9665940  84.4508830  17.3615690  66.4656920  83.9511070  18.6999260
  62.0021000  84.7330330  28.6780320  61.9736430  85.1373280  27.8108750
  61.8385970  83.8040690  28.5151920  71.9991790  70.0231240  12.1220100
  71.6864450  70.1158070  13.0219170  72.7604260  70.6012270  12.0717530
  58.5173930  77.3891040  16.5797440  58.3971530  78.1153130  15.9678710
  58.2074820  76.6193950  16.1025350  73.9535820  85.5157430  29.9744490
  74.4295540  85.9940320  30.6533570  74.5742980  85.4474920  29.2489990
  56.1559300  80.5606180  22.3866080  56.2339720  80.6954950  21.4421800
  56.7700980  79.8522070  22.5794200  57.4006930  82.2606370  18.7972260
  56.9935010  82.4020960  17.9425860  58.2919940  81.9766530  18.5943470
  73.3569070  82.7070280  27.1344500  73.4832130  82.4682160  26.2161680
  73.3990450  81.8754820  27.6066580  67.2185810  86.4098280  25.7039310
  67.7330480  86.3206290  26.5061740  66.3754890  86.7557980  25.9967220
  69.1940210  86.6953620  15.1323310  69.0341350  86.4056560  16.0305140
  69.0286920  85.9193750  14.5968540  61.6728590  86.4752150  16.9094930
  61.4971070  85.5587690  16.6962730  60.8184330  86.8339440  17.1492730
  68.8966340  84.2041180  13.6921310  68.2031500  84.2018470  13.0323590
  69.6389200  83.7800500  13.2615480  68.4616270  85.8303890  17.7669800
  68.9173220  85.0493270  18.0808420  68.8008790  86.5410710  18.3110980
  73.2093080  74.7602740  28.0994240  72.5937350  75.2682410  27.5709700
  72.8889500  73.8601070  28.0420180  56.2118820  81.6020350  24.9260540
  56.3749860  81.1325710  24.1079910  56.6771270  81.0943910  25.5909380
  60.9837590  70.7326110  19.9621110  60.5405740  71.5135650  19.6305630
  61.5422580  71.0556000  20.6692050  70.2711910  74.8203580  26.6953090
  69.4205500  74.5209330  27.0162160  70.1113700  75.0645590  25.7836910
  67.3661620  76.3205330  28.7951880  67.6915030  75.4869080  28.4554110
  68.1541950  76.8433850  28.9430210  64.0996410  70.3536810  14.8426940
  63.4750590  70.3496680  15.5680250  64.0126530  69.4867770  14.4462910
  63.0213490  71.2773440  21.8210710  63.3185820  72.1836270  21.7402730
  63.5699050  70.7892220  21.2070280  60.7751810  75.8559680  17.6902360
  60.5492730  75.6396850  18.5948980  59.9944340  76.2888140  17.3448330
  68.0049570  75.8623050  16.2893010  67.4058460  76.5858850  16.1056630
  68.5529180  75.7999830  15.5069460  66.6114440  74.4986590  18.3196290
  67.0044010  74.8158790  17.5064980  66.9731290  73.6198470  18.4340810
  55.6478610  71.0887390  20.5426490  55.3591660  71.6590250  21.2551470
  56.3924370  70.6091840  20.9057720  55.8348840  75.0307510  11.7529210
  55.7523510  75.9738270  11.8944200  55.4831900  74.8882420  10.8741560
  67.1969580  77.0892340  22.4147070  66.4650700  77.5979150  22.7637170
  66.7993920  76.2722320  22.1135850  63.6346970  73.7646540  20.8199560
  63.6383030  73.3236490  19.9704100  64.5298090  74.0863870  20.9271380
  59.4849350  73.6473030  19.7793770  59.1449400  74.1248260  20.5360820
  58.7226670  73.1938150  19.4194870  63.6967120  74.7658620  13.8106320
  63.8179940  74.7245100  14.7592140  63.3115630  75.6282770  13.6553050
  67.6595490  72.5426020  21.8270010  67.6768230  72.9934670  22.6711860
  67.4111070  71.6431660  22.0403450  62.7088620  77.0759760  13.2089620
  62.1405520  76.6278010  12.5825530  63.4177620  77.4352540  12.6754770
  57.7857800  80.9771780  27.0856350  57.4012590  80.3365450  27.6839310
  58.0969990  81.6807900  27.6551080  63.9354940  77.8248320  22.5664970
  64.3025070  77.3506890  23.3126310  63.7460000  78.6989890  22.9073310
  56.7995430  72.5692010  18.6958440  56.5142350  72.2047680  19.5337060
  56.7374290  71.8372470  18.0821580  60.2536100  81.0717950  15.4816030
  59.4798360  80.5315570  15.3214750  60.9830730  80.5524560  15.1433790
  71.0124080  80.0683310  21.2742420  71.7323200  80.5638600  20.8838530
  70.8105900  79.3901200  20.6296290  66.4734020  71.4621270  15.4171810
  65.6598630  70.9634440  15.3417120  66.2795970  72.3019520  15.0008160
  66.3942880  80.1392370  27.1611420  66.3280190  79.2188040  26.9069010
  65.7648020  80.2367810  27.8756060  69.1882410  75.8340920  13.7133970
  70.0762030  76.1458150  13.5385310  69.1587500  74.9613170  13.3214550
  60.2973500  80.7398330  19.1194840  60.8152170  79.9366590  19.0651730
  59.8457520  80.6777470  19.9611670  65.1843000  82.0064610  14.3922140
  65.5258700  82.7506840  13.8965460  64.3555710  82.3195730  14.7546970
  66.3259610  82.9612940  26.9115220  66.3404150  82.0293900  26.6934130
  65.6184710  83.0472700  27.5504990  71.4596680  77.1452760  13.1813830
  71.3760400  77.5766980  12.3310270  72.1790870  77.6051110  13.6140650
  72.5370820  79.6020280  26.2583800  71.8119010  80.1949060  26.0613190
  73.0646280  79.5943820  25.4597170  72.4883930  83.9995020  15.9095960
  71.8460090  83.3450640  16.1839680  72.1014590  84.4050110  15.1336630
  68.0670410  81.3280450  19.7567650  68.4194230  80.7308580  19.0969020
  67.1832740  81.0024680  19.9275900  64.1533690  82.0878140  17.1638060
  64.8404820  82.6347350  17.5445650  63.3666110  82.6318870  17.1987670
  56.2926090  77.7050960  12.6555140  57.1620940  77.9875760  12.9391060
  55.8016410  78.5186830  12.5403950  63.4560900  79.0924170  16.7763420
  63.9123680  79.9029420  17.0023610  63.1049110  78.7747310  17.6081910
  65.7593510  84.6030510  24.0055720  66.4035730  84.8089890  24.6829140
  66.1222950  83.8418910  23.5526570  59.3572680  69.4361820  17.2485940
  59.2287310  69.4279720  18.1970860  58.5334700  69.7744910  16.8976950
  67.0325590  82.6062860  22.7233170  67.6747820  81.9056020  22.8365340
  67.5574940  83.3861300  22.5430060  70.8781310  82.8911480  12.4472310
  70.6518890  82.1741920  13.0396950  70.4877510  82.6423920  11.6094060
  68.8063210  83.4057760  25.9269230  69.1419450  83.9924450  26.6047150
  67.8863550  83.2750470  26.1567020  56.6597340  86.9178340  13.2216770
  57.0194980  87.5167680  12.5674040  56.5189680  87.4638230  13.9951800
  70.4597560  80.8083420  14.1086470  70.1719260  81.2696110  14.8964350
  71.2549730  80.3481190  14.3770690  56.6439200  85.1833200  27.6959170
  56.7530320  84.2427940  27.5554560  55.9919760  85.4487950  27.0472900
  64.6351790  83.4549090  29.0957290  64.3148660  82.7358330  29.6402980
  63.9610150  84.1304160  29.1693350  62.6765960  84.3009540  14.0390440
  62.6676060  85.0339230  13.4234950  61.7564320  84.0541120  14.1317400
  58.2772600  79.5224430  14.7837200  57.6700550  80.2623330  14.7932500
  58.7521950  79.6123790  13.9575400  67.8505390  73.6875250  24.4594090
  68.2186210  72.8670460  24.7873660  66.9903590  73.7477140  24.8749740
  71.2167420  72.6432190  15.2681650  70.5880580  72.7477860  14.5539880
  70.7219340  72.8628970  16.0575530  65.6625560  84.3637780  12.7015630
  65.7637540  84.1601770  11.7717610  64.7627300  84.1096060  12.9063410
  63.1851450  74.9218140  16.6839530  62.4767600  75.3904480  17.1253140
  63.4695930  74.2640150  17.3184720  64.8107380  76.3414840  24.6832060
  65.3092630  76.8160660  25.3483910  64.9530330  75.4178360  24.8902090
  67.2166880  71.6468800  18.1235320  67.0934660  71.6654930  17.1744830
  68.1651440  71.6947740  18.2433720  64.3043670  86.8824100  17.3963300
  64.5585170  86.8445490  16.4742670  63.3556150  86.7557430  17.3891550
  61.3886470  73.2303220  14.0590240  62.2377000  73.6673370  13.9930430
  61.0217740  73.5423480  14.8862300  72.0174240  72.5582800  25.5260450
  71.5147840  73.2988200  25.8654260  72.8330900  72.9466800  25.2097240
  70.3096250  77.8015980  18.9721810  69.3686390  77.8166210  19.1469500
  70.6240320  77.0151940  19.4182110  60.2877890  79.4835580  12.5325770
  61.0541160  79.3716940  13.0951200  60.3652580  78.7873550  11.8802540
  58.9824650  76.9160650  13.2158660  59.0628240  75.9688160  13.3276060
  59.8744400  77.2467530  13.3219320  72.3121830  84.9724830  20.6476070
  72.4369250  85.7956000  21.1199880  73.1787390  84.7615560  20.3000220
  59.7839360  87.0656040  20.3193200  60.5201840  86.5171500  20.5901770
  60.1680280  87.9312050  20.1799190  56.6684840  83.1329610  16.1934710
  55.7424620  83.3750750  16.1840120  57.1341270  83.9603870  16.0719460
  58.7897640  86.2502110  29.5078780  59.5910370  86.5714160  29.9214180
  58.2749460  85.8897690  30.2298690  62.8941670  86.2386350  12.1418770
  63.6870280  86.5275180  11.6900560  62.3746020  85.8078520  11.4631250
  67.6262270  82.3581980  29.4554190  67.0200430  82.3813580  28.7149940
  67.3216380  81.6265020  29.9921440  69.0562640  86.0862270  28.0663600
  70.0084390  86.0020290  28.0163840  68.9090860  86.7503980  28.7397390
  71.9471840  85.4656480  13.5655510  71.6613350  85.0521620  12.7509690
  71.7491390  86.3944190  13.4456030  63.4119070  81.4589760  12.0061120
  63.3069710  80.8442110  12.7322500  63.2443290  80.9355650  11.2224130
  63.5633390  80.1446560  27.9850350  62.7979060  80.7131560  27.9005020
  63.7449350  79.8522770  27.0918580  66.6521800  80.5209790  12.6103110
  66.1031900  80.9679090  13.2545850  67.2741060  80.0159040  13.1340780
  70.7056740  81.8751890  28.5425370  71.4466210  82.2127650  28.0392830
  69.9429420  82.0443950  27.9895140  62.3196920  79.4800710  14.5068410
  62.7413340  79.3140580  15.3499800  62.4447760  78.6700940  14.0123550
  64.8324560  78.5038320  11.7545510  65.3530220  77.7887340  11.3886660
  65.4792960  79.1424190  12.0546020  69.3802400  79.9266720  27.0780580
  69.7943420  80.0811800  27.9271000  68.4453400  80.0521940  27.2406360
  69.8524570  77.2662880  29.0819730  70.4345340  76.5115200  28.9940210
  70.0286340  77.7970320  28.3051210  63.7358080  70.9832870  24.4264070
  63.2875380  71.0057130  23.5809620  63.1023280  70.5851890  25.0234370
  64.1417630  79.8787200  25.0476510  64.5605740  80.7219930  24.8752750
  63.2226260  80.0159240  24.8183290  66.4781530  77.6103380  26.4314350
  66.5977740  77.0144520  27.1709190  67.3375530  77.6473070  26.0115650
  68.8169430  78.1640570  25.0076860  68.2904650  78.6883190  24.4042000
  69.1600770  78.7967960  25.6386590  61.2155820  75.5533940  11.4526570
  61.0144880  74.6901300  11.8139910  61.0447870  75.4667300  10.5148170
  61.9925050  86.1840210  26.1634240  61.4546140  86.9086270  25.8442940
  62.2459010  85.7070550  25.3731580  68.0643730  73.7690540  27.9223190
  67.3759250  73.1072080  27.8573180  68.7849750  73.3228810  28.3671650
  68.6944130  70.3642170  13.9813450  68.9746420  69.5210070  14.3372870
  67.9209860  70.5965280  14.4952200  60.0138620  72.6534560  11.4404450
  60.3164520  72.6601990  10.5323600  60.7533210  72.3032420  11.9372110
  64.8487260  87.4191420  26.4220890  64.7745960  88.3226560  26.7293260
  63.9466100  87.1003320  26.3942960  63.2323550  71.5969180  12.4260650
  62.8845550  70.9193170  11.8463100  63.4336320  71.1358690  13.2404040
  65.3972590  86.5849930  14.0447250  66.2923380  86.9234900  14.0666010
  65.4290220  85.8629340  13.4171530  59.0368750  81.9576980  12.2734250
  59.4743620  82.5006650  12.9291830  59.5216480  81.1323930  12.2830590
  56.2514550  84.7466010  19.7254510  56.5817560  83.8787070  19.4933150
  56.6805550  84.9524530  20.5559470  60.8476470  83.0775020  17.3856480
  60.5472010  82.9539990  18.2860390  60.7413960  82.2183610  16.9772210
  56.7404760  85.6136600  22.4636140  56.3035750  85.7937400  23.2960290
  57.3082440  86.3711220  22.3217860  72.3766940  85.1153600  26.7513450
  71.7768930  85.1746160  26.0077370  72.5060840  84.1758580  26.8810300
  73.6168390  82.8571420  12.0883160  72.7861350  82.9248070  12.5590390
  73.7940220  83.7475540  11.7850020  73.0724850  79.6018900  14.5917360
  73.8343760  80.1715550  14.6977050  73.0879220  79.0346100  15.3625670
  56.5729190  78.1256830  18.8225020  55.9178030  77.8568470  18.1784720
  57.4107140  78.0161310  18.3727000  74.0784820  80.4569000  19.4359290
  74.4493650  79.6736320  19.0295260  74.7186750  81.1458100  19.2576590
  71.0618580  81.8405580  24.8489610  70.2478420  82.2702740  25.1115400
  71.4692780  82.4523990  24.2358660  73.1244020  79.8953270  11.7489880
  73.3992860  80.8032150  11.6209100  72.9354760  79.8315800  12.6851870
  69.5219630  72.9198120  13.0443510  69.9404510  72.7329100  12.2040170
  69.2155690  72.0677170  13.3546440  73.0209360  77.8322260  16.7419310
  72.6452960  77.0650190  16.3100600  72.2912480  78.2144960  17.2294240
  57.6105120  78.5109400  23.3628360  57.9778160  78.4236800  24.2424380
  57.0415940  77.7475950  23.2635220  72.4108980  76.9793780  26.3758830
  72.1795070  76.7506530  25.4756780  72.6713530  77.8993330  26.3303720
  70.8497050  72.2050210  29.1538530  71.7267230  72.2133610  29.5372530
  70.8617890  71.4681050  28.5430880  55.7867270  75.3355760  14.7650350
  54.8831350  75.5985960  14.5902010  56.2707890  75.6066930  13.9850310
  72.2960320  76.0579750  20.0426550  72.8197800  75.5642400  19.4116720
  72.8819740  76.1930110  20.7874120  72.4750040  76.1419620  23.5646100
  71.5252750  76.1083160  23.6791090  72.6563050  77.0519730  23.3295870
  58.3294480  74.3921300  12.6744730  59.0386180  73.9704520  12.1892010
  57.6134420  74.4596530  12.0428080  57.9768640  70.4460630  11.7147380
  58.6996770  70.9869570  12.0328600  58.2493160  70.1724050  10.8388920
  71.7860290  75.3153100  15.9818960  72.2819410  75.0823970  16.7667840
  71.5876360  74.4764940  15.5656600  57.6660830  69.6966820  21.6170000
  58.3137020  69.1464200  21.1765160  58.0862670  69.9509970  22.4385810
  73.2147450  73.9514050  18.5156640  73.1046730  73.7970090  19.4538910
  73.9755040  73.4234990  18.2732050  71.5613170  69.8908180  24.9739640
  72.1985390  70.5042320  25.3398830  71.7088060  69.9268840  24.0288870
  74.1037720  71.7821970  11.7562780  75.0287030  71.6503150  11.5481070
  74.0813510  71.8614790  12.7099230  74.1776210  72.5532630  14.3819490
  73.3827710  72.4877750  14.9112400  74.3819490  73.4883270  14.3704840
  71.1194630  86.5924180  18.3757880  71.7153700  86.2708750  17.6992300
  71.3772780  86.1196000  19.1671150  57.4192830  69.8522490  24.3595320
  57.0707650  70.3086310  25.1253500  57.0880530  68.9579620  24.4417750
  59.0257200  83.0242090  28.5248510  58.9826830  82.6535000  29.4062970
  59.1568210  83.9619660  28.6650330  62.7263230  84.5801680  24.1258230
  62.4854590  84.8476240  23.2388750  63.6665870  84.7507410  24.1809090
  73.9867390  86.5996060  24.9268870  73.4925670  86.9964930  24.2096000
  73.3780680  85.9745270  25.3206150  58.8645230  85.9704340  25.6446290
  58.2705550  85.8389040  26.3836330  58.8569070  85.1342480  25.1788390
  68.3100250  69.2636570  23.8476320  67.4360090  69.5971680  23.6449250
  68.2011000  68.7909750  24.6728190  69.2172230  71.4707440  25.2318040
  68.8885590  70.6559200  24.8519770  70.1654530  71.4277250  25.1083730
  71.6706840  87.2419480  22.2055610  71.2109810  87.9935290  21.8313630
  71.0419300  86.5225950  22.1470410  58.4957460  83.3362720  24.5954330
  57.7691520  82.7168010  24.5280280  58.5566610  83.7303330  23.7252410
  62.1002560  85.5507720  21.3803740  62.6167580  84.9395080  20.8552000
  62.7499940  86.0536500  21.8714750  64.8398060  86.4416210  22.2072720
  65.1275870  86.1870510  21.3305730  65.3521280  85.8893570  22.7978290
  66.0575070  70.1806410  22.7869230  65.2746860  70.6551910  23.0665990
  65.7638000  69.2761240  22.6782410  70.6096140  70.8829510  20.8318320
  71.0504230  70.8274610  19.9839920  70.3403730  71.7987520  20.9028500
  72.4734710  70.5144750  18.8427140  72.4123110  69.5705970  18.6958160
  73.2526740  70.6224840  19.3880600  56.7787460  86.6537110  17.8051090
  56.6109500  86.0207790  18.5032980  55.9121970  86.8596510  17.4545280
  57.4015480  70.4853890  15.3082950  58.1594840  70.5982770  14.7346980
  56.9392650  71.3223090  15.2626380  63.9429290  72.5993160  18.2985260
  63.1303800  72.2250050  17.9581140  64.4470930  71.8438240  18.6006450
  68.4454270  69.2635610  19.5368330  69.0483640  69.8355820  20.0116850
  67.7047260  69.8275050  19.3142230  71.5888870  69.6657170  14.8108610
  71.7839500  70.5640620  15.0776040  70.8018740  69.4344250  15.3041560
  58.3850160  85.3470340  15.2501230  57.8597780  85.7278370  14.5463190
  58.3094740  85.9721110  15.9710940  59.7740630  71.0117940  13.8484920
  60.3033390  70.2247740  13.7192870  60.4068950  71.6909130  14.0820450
  61.9678470  70.7493080  16.9030310  61.3381210  70.0480390  17.0700440
  61.4283610  71.5097210  16.6863470  64.9070420  87.3632310  29.5740920
  65.8337730  87.1276580  29.6176880  64.8920850  88.1904310  29.0926950
  73.1415480  86.9057880  16.5715170  73.3167670  86.2195620  15.9276090
  72.4437050  87.4304930  16.1791840  60.9843130  87.2952720  14.1250480
  61.7161950  87.0112000  13.5774370  61.2436800  87.0566000  15.0149860
  60.1457920  83.4117450  14.1296810  59.5166800  83.8802550  14.6782640
  60.2605750  82.5666670  14.5643000  71.4747980  86.5902170  29.3981960
  72.2673300  86.0951400  29.1907920  71.7681130  87.2692310  30.0057570
  65.7325680  79.2402130   2.1607280  64.9567780  78.7602570   2.4505850
  66.3838610  78.5607780   1.9863440  59.7491510  79.5521940   3.0383040
  58.9176390  79.2970650   3.4379550  60.3572490  79.6232710   3.7740960
  59.7292770  83.5862030   3.2341060  60.0320810  82.6959770   3.0551280
  60.4736360  84.1432250   3.0063310  56.1216470  77.1129480   2.7065130
  56.6932580  76.3451680   2.7068770  56.1218010  77.4118240   1.7971740
  65.1734670  81.9159320   2.1677440  65.1042950  80.9749260   2.0066570
  65.9354530  82.0060730   2.7400010  57.3641340  72.5213840   4.4934060
  57.1844180  71.6239590   4.7736820  56.9621420  73.0685710   5.1681010
  66.2039840  74.7229700   2.3946370  66.5804660  73.8501580   2.2820040
  66.1059350  75.0588400   1.5036810  57.9828010  75.0174340   3.1016400
  58.6638120  75.2812710   3.7203800  57.6676060  74.1775210   3.4354410
  62.1752580  76.0641700   2.1888990  62.6830800  76.5622670   2.8294010
  62.7065820  75.2876900   2.0128350  74.2763510  74.2346890   5.8918340
  73.5715680  74.6228600   5.3733450  74.5421430  74.9297180   6.4939270
  60.4588680  70.7040260   6.4552410  60.4607120  71.2212650   5.6498310
  59.6292990  70.2270440   6.4322340  61.7091530  80.3435440   4.6325910
  61.3760910  80.9704360   5.2746980  61.8858210  80.8697320   3.8527580
  70.2225440  74.1580520   2.1002250  69.5181010  74.4465410   2.6805360
  70.5837600  74.9680630   1.7401810  60.1404010  72.4150220   4.4622860
  60.4820820  73.2592270   4.1676730  59.2019820  72.5633960   4.5788200
  60.9210630  82.3116240   6.4475090  61.5384630  82.9867320   6.1659540
  60.0603750  82.7204220   6.3562590  71.8388220  83.7755650   4.3629730
  71.1551740  84.4454760   4.3546400  72.3782510  83.9736300   3.5974590
  73.2912360  73.6035310   2.4911460  72.3437270  73.6374290   2.6226890
  73.6162350  74.4174260   2.8760820  69.3746960  85.6199780   3.0774910
  69.3874120  85.2162070   2.2097170  68.8222180  86.3947070   2.9736340
  68.7732400  80.5229620   4.4057520  69.1901190  80.3089730   3.5710980
  69.4972220  80.7802410   4.9766140  72.7194500  78.9216840   4.4973760
  71.8913130  78.9909930   4.0223890  73.3144980  79.5071150   4.0289590
  69.6836510  75.7086160   5.4428630  69.2707690  76.5339870   5.6968620
  68.9512460  75.1231200   5.2504990  62.2851000  82.1813620   2.4686510
  61.9879290  81.5759090   1.7894290  63.2350820  82.2190930   2.3575870
  60.5297920  75.2689270   4.0846340  61.0812510  75.3784610   3.3099590
  61.0441430  75.6426870   4.8001570  70.3736610  85.7545490   6.1309610
  69.8967170  86.5617680   5.9382220  69.6898400  85.1023820   6.2835820
  61.3769430  81.9195310   9.1194310  60.4797960  82.1435280   9.3667710
  61.4022300  82.0430250   8.1705710  60.2040650  78.7908630   7.6951680
  60.0648420  79.6631430   8.0639080  59.3222010  78.4481440   7.5499620
  62.0021000  84.7330330   9.9036830  61.9736430  85.1373280   9.0365260
  61.8385970  83.8040690   9.7408430  73.9535820  85.5157430  11.2001000
  74.4295540  85.9940320  11.8790080  74.5742980  85.4474920  10.4746500
  56.1559300  80.5606180   3.6122590  56.2339720  80.6954950   2.6678310
  56.7700980  79.8522070   3.8050710  73.3569070  82.7070280   8.3601010
  73.4832130  82.4682160   7.4418190  73.3990450  81.8754820   8.8323090
  67.2185810  86.4098280   6.9295820  67.7330480  86.3206290   7.7318250
  66.3754890  86.7557980   7.2223730  73.2093080  74.7602740   9.3250750
  72.5937350  75.2682410   8.7966210  72.8889500  73.8601070   9.2676690
  56.2118820  81.6020350   6.1517050  56.3749860  81.1325710   5.3336420
  56.6771270  81.0943910   6.8165890  65.2707400  73.5994630   6.7912940
  64.8086770  73.8077650   7.6032880  64.8685510  72.7853980   6.4883610
  70.2711910  74.8203580   7.9209600  69.4205500  74.5209330   8.2418670
  70.1113700  75.0645590   7.0093420  67.3661620  76.3205330  10.0208390
  67.6915030  75.4869080   9.6810620  68.1541950  76.8433850  10.1686720
  63.0213490  71.2773440   3.0467220  63.3185820  72.1836270   2.9659240
  63.5699050  70.7892220   2.4326790  63.2151020  76.7545260   9.5819140
  63.1194620  75.8139990   9.4319540  64.0583000  76.9760330   9.1867210
  58.3461560  73.1658930   7.7352920  57.9524950  74.0134140   7.9425700
  57.6579960  72.5285300   7.9261560  64.9206610  73.2493900  10.8049660
  64.2304930  73.0566100  11.4395750  65.6638910  73.5328540  11.3373960
  55.6478610  71.0887390   1.7683000  55.3591660  71.6590250   2.4807980
  56.3924370  70.6091840   2.1314230  67.1969580  77.0892340   3.6403580
  66.4650700  77.5979150   3.9893680  66.7993920  76.2722320   3.3392360
  67.6595490  72.5426020   3.0526520  67.6768230  72.9934670   3.8968370
  67.4111070  71.6431660   3.2659960  71.0866240  69.9558200   8.8912900
  71.4112010  69.2247860   9.4170880  71.1222750  69.6371840   7.9893890
  57.7857800  80.9771780   8.3112860  57.4012590  80.3365450   8.9095820
  58.0969990  81.6807900   8.8807590  63.9354940  77.8248320   3.7921480
  64.3025070  77.3506890   4.5382820  63.7460000  78.6989890   4.1329820
  61.7254310  76.8656960   6.1105690  61.4211380  77.7448940   6.3356050
  62.6800770  76.9256750   6.1463130  71.0124080  80.0683310   2.4998930
  71.7323200  80.5638600   2.1095040  70.8105900  79.3901200   1.8552800
  66.3942880  80.1392370   8.3867930  66.3280190  79.2188040   8.1325520
  65.7648020  80.2367810   9.1012570  57.7818040  77.7059700   7.2577050
  57.4232980  78.3713550   7.8450390  57.4872600  76.8743250   7.6289670
  60.9831160  78.1643940  10.1416600  60.6831300  78.3101120   9.2444420
  61.7542400  77.6049230  10.0489990  66.3259610  82.9612940   8.1371730
  66.3404150  82.0293900   7.9190640  65.6184710  83.0472700   8.7761500
  72.5370820  79.6020280   7.4840310  71.8119010  80.1949060   7.2869700
  73.0646280  79.5943820   6.6853680  65.7593510  84.6030510   5.2312230
  66.4035730  84.8089890   5.9085650  66.1222950  83.8418910   4.7783080
  67.0325590  82.6062860   3.9489680  67.6747820  81.9056020   4.0621850
  67.5574940  83.3861300   3.7686570  68.8063210  83.4057760   7.1525740
  69.1419450  83.9924450   7.8303660  67.8863550  83.2750470   7.3823530
  56.3566610  71.1952940   7.9349150  55.6425130  71.3949860   8.5401760
  56.7761650  70.4192510   8.3063950  56.6439200  85.1833200   8.9215680
  56.7530320  84.2427940   8.7811070  55.9919760  85.4487950   8.2729410
  64.6351790  83.4549090  10.3213800  64.3148660  82.7358330  10.8659490
  63.9610150  84.1304160  10.3949860  67.8505390  73.6875250   5.6850600
  68.2186210  72.8670460   6.0130170  66.9903590  73.7477140   6.1006250
  64.8107380  76.3414840   5.9088570  65.3092630  76.8160660   6.5740420
  64.9530330  75.4178360   6.1158600  72.0174240  72.5582800   6.7516960
  71.5147840  73.2988200   7.0910770  72.8330900  72.9466800   6.4353750
  72.3121830  84.9724830   1.8732580  72.4369250  85.7956000   2.3456390
  73.1787390  84.7615560   1.5256730  58.7897640  86.2502110  10.7335290
  59.5910370  86.5714160  11.1470690  58.2749460  85.8897690  11.4555200
  67.6262270  82.3581980  10.6810700  67.0200430  82.3813580   9.9406450
  67.3216380  81.6265020  11.2177950  69.0562640  86.0862270   9.2920110
  70.0084390  86.0020290   9.2420350  68.9090860  86.7503980   9.9653900
  56.5095450  78.7375570   9.6771340  57.0134470  78.1582850  10.2487570
  55.7702870  79.0215800  10.2147710  63.5633390  80.1446560   9.2106860
  62.7979060  80.7131560   9.1261530  63.7449350  79.8522770   8.3175090
  70.7056740  81.8751890   9.7681880  71.4466210  82.2127650   9.2649340
  69.9429420  82.0443950   9.2151650  58.5418530  76.8805160  10.5721410
  58.5823870  76.5819030  11.4806640  59.3964030  77.2812770  10.4128930
  60.4824340  75.4597260   8.5395900  59.9520800  74.9688210   7.9119240
  61.1512410  75.8881460   8.0053830  69.3802400  79.9266720   8.3037090
  69.7943420  80.0811800   9.1527510  68.4453400  80.0521940   8.4662870
  69.8524570  77.2662880  10.3076240  70.4345340  76.5115200  10.2196720
  70.0286340  77.7970320   9.5307720  60.9696640  72.4259630   8.6193190
  60.8753510  71.8080380   7.8944060  60.3894030  73.1525920   8.3923100
  63.7358080  70.9832870   5.6520580  63.2875380  71.0057130   4.8066130
  63.1023280  70.5851890   6.2490880  64.1417630  79.8787200   6.2733020
  64.5605740  80.7219930   6.1009260  63.2226260  80.0159240   6.0439800
  66.4781530  77.6103380   7.6570860  66.5977740  77.0144520   8.3965700
  67.3375530  77.6473070   7.2372160  68.8169430  78.1640570   6.2333370
  68.2904650  78.6883190   5.6298510  69.1600770  78.7967960   6.8643100
  61.9925050  86.1840210   7.3890750  61.4546140  86.9086270   7.0699450
  62.2459010  85.7070550   6.5988090  63.2450300  74.1524730   8.9146680
  63.8349990  73.8440580   9.6024500  62.4270540  73.6804480   9.0706580
  68.0643730  73.7690540   9.1479700  67.3759250  73.1072080   9.0829690
  68.7849750  73.3228810   9.5928160  64.8487260  87.4191420   7.6477400
  64.7745960  88.3226560   7.9549770  63.9466100  87.1003320   7.6199470
  56.7404760  85.6136600   3.6892650  56.3035750  85.7937400   4.5216800
  57.3082440  86.3711220   3.5474370  72.3766940  85.1153600   7.9769960
  71.7768930  85.1746160   7.2333880  72.5060840  84.1758580   8.1066810
  71.0618580  81.8405580   6.0746120  70.2478420  82.2702740   6.3371910
  71.4692780  82.4523990   5.4615170  57.6105120  78.5109400   4.5884870
  57.9778160  78.4236800   5.4680890  57.0415940  77.7475950   4.4891730
  72.4108980  76.9793780   7.6015340  72.1795070  76.7506530   6.7013290
  72.6713530  77.8993330   7.5560230  57.1621120  75.4218490   8.4943290
  56.2677170  75.3885250   8.8337000  57.7018670  75.6205280   9.2594540
  70.8497050  72.2050210  10.3795040  71.7267230  72.2133610  10.7629040
  70.8617890  71.4681050   9.7687390  72.4750040  76.1419620   4.7902610
  71.5252750  76.1083160   4.9047600  72.6563050  77.0519730   4.5552380
  57.6660830  69.6966820   2.8426510  58.3137020  69.1464200   2.4021670
  58.0862670  69.9509970   3.6642320  71.5613170  69.8908180   6.1996150
  72.1985390  70.5042320   6.5655340  71.7088060  69.9268840   5.2545380
  57.4192830  69.8522490   5.5851830  57.0707650  70.3086310   6.3510010
  57.0880530  68.9579620   5.6674260  59.0257200  83.0242090   9.7505020
  58.9826830  82.6535000  10.6319480  59.1568210  83.9619660   9.8906840
  62.7263230  84.5801680   5.3514740  62.4854590  84.8476240   4.4645260
  63.6665870  84.7507410   5.4065600  64.9317650  71.0434370   9.1071250
  64.8706540  71.6356200   9.8566660  65.8718030  70.9360330   8.9621510
  67.5692210  70.7004430   8.7463540  68.1832620  71.0183720   8.0844620
  68.1141770  70.2153020   9.3659400  73.9867390  86.5996060   6.1525380
  73.4925670  86.9964930   5.4352510  73.3780680  85.9745270   6.5462660
  58.0913470  69.3798690   8.8602600  58.6396460  69.1986740   8.0968710
  58.1568780  68.5892800   9.3958910  58.8645230  85.9704340   6.8702800
  58.2705550  85.8389040   7.6092840  58.8569070  85.1342480   6.4044900
  68.3100250  69.2636570   5.0732830  67.4360090  69.5971680   4.8705760
  68.2011000  68.7909750   5.8984700  69.2172230  71.4707440   6.4574550
  68.8885590  70.6559200   6.0776280  70.1654530  71.4277250   6.3340240
  71.6706840  87.2419480   3.4312120  71.2109810  87.9935290   3.0570140
  71.0419300  86.5225950   3.3726920  58.4957460  83.3362720   5.8210840
  57.7691520  82.7168010   5.7536790  58.5566610  83.7303330   4.9508920
  62.1002560  85.5507720   2.6060250  62.6167580  84.9395080   2.0808510
  62.7499940  86.0536500   3.0971260  64.8398060  86.4416210   3.4329230
  65.1275870  86.1870510   2.5562240  65.3521280  85.8893570   4.0234800
  66.0575070  70.1806410   4.0125740  65.2746860  70.6551910   4.2922500
  65.7638000  69.2761240   3.9038920  64.9070420  87.3632310  10.7997430
  65.8337730  87.1276580  10.8433390  64.8920850  88.1904310  10.3183460
  62.0934030  70.0277060  10.5639310  61.8118300  70.5310660   9.8000130
  62.4753730  69.2298810  10.1981440  68.6949490  69.4430640  11.1419780
  68.5814940  69.7625250  12.0371300  69.5119230  69.8443150  10.8457060
  71.4747980  86.5902170  10.6238470  72.2673300  86.0951400  10.4164430
  71.7681130  87.2692310  11.2314080  67.6007640  58.6879620  56.6028480
  67.5201690  57.7734230  56.3320190  67.1872060  59.1846690  55.8968190
  69.7533110  64.8718830  57.2636880  69.2914640  64.1006070  57.5924050
  70.5658660  64.8984900  57.7689330  58.1583460  55.7380340  53.1455900
  57.2700160  56.0796310  53.0435780  58.4424650  55.5380660  52.2536730
  65.9796420  67.1576840  56.8840870  65.3607860  67.6134340  56.3135310
  66.8348200  67.3128300  56.4830570  60.3344850  54.3211840  54.1794280
  60.4411600  55.2215570  54.4863040  59.4237210  54.2729810  53.8888930
  69.9863960  53.4436650  55.6505180  70.8073580  52.9533220  55.6930660
  70.0198040  54.0334310  56.4037020  66.8459770  62.0416080  54.2772780
  66.2277040  62.5065530  53.7135500  67.3583020  62.7343560  54.6942290
  56.2142970  62.7272610  51.6512410  55.8370950  63.2159710  50.9197310
  56.4716040  63.3997890  52.2818940  63.8231900  51.1289000  57.1097920
  64.1306880  50.5735890  56.3933420  62.8932600  51.2633460  56.9270910
  70.6692380  63.5672510  54.4895550  70.5588710  62.6246840  54.6144970
  70.6660630  63.9288150  55.3758310  66.2112660  59.1937830  53.8458040
  65.2841940  59.1275210  54.0746510  66.3637480  60.1317960  53.7313280
  66.1981740  55.4654830  50.8425200  65.2585410  55.6268790  50.9277660
  66.5165000  56.1840510  50.2961190  70.2409950  60.7558130  54.3493290
  69.6222370  60.4177680  53.7019590  70.2234400  60.1117890  55.0572480
  61.8169300  59.7202570  56.6277770  61.4126300  59.0079820  56.1323670
  61.9032420  59.3755810  57.5165810  68.4174650  59.9944940  51.3566040
  68.8567930  59.1567370  51.2103860  69.1303070  60.6274340  51.4430180
  66.5270030  64.9341010  55.3247280  66.9665940  65.6765340  54.9102670
  66.4656920  65.1767580  56.2486240  71.9991790  51.2487750  49.6707080
  71.6864450  51.3414580  50.5706150  72.7604260  51.8268780  49.6204510
  58.5173930  58.6147550  54.1284420  58.3971530  59.3409640  53.5165690
  58.2074820  57.8450460  53.6512330  57.4006930  63.4862880  56.3459240
  56.9935010  63.6277470  55.4912840  58.2919940  63.2023040  56.1430450
  69.1940210  67.9210130  52.6810290  69.0341350  67.6313070  53.5792120
  69.0286920  67.1450260  52.1455520  61.6728590  67.7008660  54.4581910
  61.4971070  66.7844200  54.2449710  60.8184330  68.0595950  54.6979710
  68.8966340  65.4297690  51.2408290  68.2031500  65.4274980  50.5810570
  69.6389200  65.0057010  50.8102460  68.4616270  67.0560400  55.3156780
  68.9173220  66.2749780  55.6295400  68.8008790  67.7667220  55.8597960
  60.9837590  51.9582620  57.5108090  60.5405740  52.7392160  57.1792610
  61.5422580  52.2812510  58.2179030  64.0996410  51.5793320  52.3913920
  63.4750590  51.5753190  53.1167230  64.0126530  50.7124280  51.9949890
  60.7751810  57.0816190  55.2389340  60.5492730  56.8653360  56.1435960
  59.9944340  57.5144650  54.8935310  68.0049570  57.0879560  53.8379990
  67.4058460  57.8115360  53.6543610  68.5529180  57.0256340  53.0556440
  66.6114440  55.7243100  55.8683270  67.0044010  56.0415300  55.0551960
  66.9731290  54.8454980  55.9827790  55.8348840  56.2564020  49.3016190
  55.7523510  57.1994780  49.4431180  55.4831900  56.1138930  48.4228540
  63.6346970  54.9903050  58.3686540  63.6383030  54.5493000  57.5191080
  64.5298090  55.3120380  58.4758360  59.4849350  54.8729540  57.3280750
  59.1449400  55.3504770  58.0847800  58.7226670  54.4194660  56.9681850
  63.6967120  55.9915130  51.3593300  63.8179940  55.9501610  52.3079120
  63.3115630  56.8539280  51.2040030  62.7088620  58.3016270  50.7576600
  62.1405520  57.8534520  50.1312510  63.4177620  58.6609050  50.2241750
  56.7995430  53.7948520  56.2445420  56.5142350  53.4304190  57.0824040
  56.7374290  53.0628980  55.6308560  60.2536100  62.2974460  53.0303010
  59.4798360  61.7572080  52.8701730  60.9830730  61.7781070  52.6920770
  66.4734020  52.6877780  52.9658790  65.6598630  52.1890950  52.8904100
  66.2795970  53.5276030  52.5495140  69.1882410  57.0597430  51.2620950
  70.0762030  57.3714660  51.0872290  69.1587500  56.1869680  50.8701530
  60.2973500  61.9654840  56.6681820  60.8152170  61.1623100  56.6138710
  59.8457520  61.9033980  57.5098650  65.1843000  63.2321120  51.9409120
  65.5258700  63.9763350  51.4452440  64.3555710  63.5452240  52.3033950
  71.4596680  58.3709270  50.7300810  71.3760400  58.8023490  49.8797250
  72.1790870  58.8307620  51.1627630  72.4883930  65.2251530  53.4582940
  71.8460090  64.5707150  53.7326660  72.1014590  65.6306620  52.6823610
  68.0670410  62.5536960  57.3054630  68.4194230  61.9565090  56.6456000
  67.1832740  62.2281190  57.4762880  64.1533690  63.3134650  54.7125040
  64.8404820  63.8603860  55.0932630  63.3666110  63.8575380  54.7474650
  56.2926090  58.9307470  50.2042120  57.1620940  59.2132270  50.4878040
  55.8016410  59.7443340  50.0890930  63.4560900  60.3180680  54.3250400
  63.9123680  61.1285930  54.5510590  63.1049110  60.0003820  55.1568890
  59.3572680  50.6618330  54.7972920  59.2287310  50.6536230  55.7457840
  58.5334700  51.0001420  54.4463930  70.8781310  64.1167990  49.9959290
  70.6518890  63.3998430  50.5883930  70.4877510  63.8680430  49.1581040
  56.6597340  68.1434850  50.7703750  57.0194980  68.7424190  50.1161020
  56.5189680  68.6894740  51.5438780  70.4597560  62.0339930  51.6573450
  70.1719260  62.4952620  52.4451330  71.2549730  61.5737700  51.9257670
  62.6765960  65.5266050  51.5877420  62.6676060  66.2595740  50.9721930
  61.7564320  65.2797630  51.6804380  58.2772600  60.7480940  52.3324180
  57.6700550  61.4879840  52.3419480  58.7521950  60.8380300  51.5062380
  71.2167420  53.8688700  52.8168630  70.5880580  53.9734370  52.1026860
  70.7219340  54.0885480  53.6062510  65.6625560  65.5894290  50.2502610
  65.7637540  65.3858280  49.3204590  64.7627300  65.3352570  50.4550390
  63.1851450  56.1474650  54.2326510  62.4767600  56.6160990  54.6740120
  63.4695930  55.4896660  54.8671700  67.2166880  52.8725310  55.6722300
  67.0934660  52.8911440  54.7231810  68.1651440  52.9204250  55.7920700
  64.3043670  68.1080610  54.9450280  64.5585170  68.0702000  54.0229650
  63.3556150  67.9813940  54.9378530  61.3886470  54.4559730  51.6077220
  62.2377000  54.8929880  51.5417410  61.0217740  54.7679990  52.4349280
  70.3096250  59.0272490  56.5208790  69.3686390  59.0422720  56.6956480
  70.6240320  58.2408450  56.9669090  60.2877890  60.7092090  50.0812750
  61.0541160  60.5973450  50.6438180  60.3652580  60.0130060  49.4289520
  58.9824650  58.1417160  50.7645640  59.0628240  57.1944670  50.8763040
  59.8744400  58.4724040  50.8706300  59.7839360  68.2912550  57.8680180
  60.5201840  67.7428010  58.1388750  60.1680280  69.1568560  57.7286170
  56.6684840  64.3586120  53.7421690  55.7424620  64.6007260  53.7327100
  57.1341270  65.1860380  53.6206440  62.8941670  67.4642860  49.6905750
  63.6870280  67.7531690  49.2387540  62.3746020  67.0335030  49.0118230
  71.9471840  66.6912990  51.1142490  71.6613350  66.2778130  50.2996670
  71.7491390  67.6200700  50.9943010  63.4119070  62.6846270  49.5548100
  63.3069710  62.0698620  50.2809480  63.2443290  62.1612160  48.7711110
  66.6521800  61.7466300  50.1590090  66.1031900  62.1935600  50.8032830
  67.2741060  61.2415550  50.6827760  62.3196920  60.7057220  52.0555390
  62.7413340  60.5397090  52.8986780  62.4447760  59.8957450  51.5610530
  64.8324560  59.7294830  49.3032490  65.3530220  59.0143850  48.9373640
  65.4792960  60.3680700  49.6033000  61.2155820  56.7790450  49.0013550
  61.0144880  55.9157810  49.3626890  61.0447870  56.6923810  48.0635150
  68.6944130  51.5898680  51.5300430  68.9746420  50.7466580  51.8859850
  67.9209860  51.8221790  52.0439180  60.0138620  53.8791070  48.9891430
  60.3164520  53.8858500  48.0810580  60.7533210  53.5288930  49.4859090
  63.2323550  52.8225690  49.9747630  62.8845550  52.1449680  49.3950080
  63.4336320  52.3615200  50.7891020  65.3972590  67.8106440  51.5934230
  66.2923380  68.1491410  51.6152990  65.4290220  67.0885850  50.9658510
  59.0368750  63.1833490  49.8221230  59.4743620  63.7263160  50.4778810
  59.5216480  62.3580440  49.8317570  56.2514550  65.9722520  57.2741490
  56.5817560  65.1043580  57.0420130  56.6805550  66.1781040  58.1046450
  60.8476470  64.3031530  54.9343460  60.5472010  64.1796500  55.8347370
  60.7413960  63.4440120  54.5259190  73.6168390  64.0827930  49.6370140
  72.7861350  64.1504580  50.1077370  73.7940220  64.9732050  49.3337000
  73.0724850  60.8275410  52.1404340  73.8343760  61.3972060  52.2464030
  73.0879220  60.2602610  52.9112650  56.5729190  59.3513340  56.3712000
  55.9178030  59.0824980  55.7271700  57.4107140  59.2417820  55.9213980
  74.0784820  61.6825510  56.9846270  74.4493650  60.8992830  56.5782240
  74.7186750  62.3714610  56.8063570  73.1244020  61.1209780  49.2976860
  73.3992860  62.0288660  49.1696080  72.9354760  61.0572310  50.2338850
  69.5219630  54.1454630  50.5930490  69.9404510  53.9585610  49.7527150
  69.2155690  53.2933680  50.9033420  73.0209360  59.0578770  54.2906290
  72.6452960  58.2906700  53.8587580  72.2912480  59.4401470  54.7781220
  55.7867270  56.5612270  52.3137330  54.8831350  56.8242470  52.1388990
  56.2707890  56.8323440  51.5337290  72.2960320  57.2836260  57.5913530
  72.8197800  56.7898910  56.9603700  72.8819740  57.4186620  58.3361100
  58.3294480  55.6177810  50.2231710  59.0386180  55.1961030  49.7378990
  57.6134420  55.6853040  49.5915060  57.9768640  51.6717140  49.2634360
  58.6996770  52.2126080  49.5815580  58.2493160  51.3980560  48.3875900
  71.7860290  56.5409610  53.5305940  72.2819410  56.3080480  54.3154820
  71.5876360  55.7021450  53.1143580  73.2147450  55.1770560  56.0643620
  73.1046730  55.0226600  57.0025890  73.9755040  54.6491500  55.8219030
  74.1037720  53.0078480  49.3049760  75.0287030  52.8759660  49.0968050
  74.0813510  53.0871300  50.2586210  74.1776210  53.7789140  51.9306470
  73.3827710  53.7134260  52.4599380  74.3819490  54.7139780  51.9191820
  71.1194630  67.8180690  55.9244860  71.7153700  67.4965260  55.2479280
  71.3772780  67.3452510  56.7158130  70.6096140  52.1086020  58.3805300
  71.0504230  52.0531120  57.5326900  70.3403730  53.0244030  58.4515480
  72.4734710  51.7401260  56.3914120  72.4123110  50.7962480  56.2445140
  73.2526740  51.8481350  56.9367580  56.7787460  67.8793620  55.3538070
  56.6109500  67.2464300  56.0519960  55.9121970  68.0853020  55.0032260
  57.4015480  51.7110400  52.8569930  58.1594840  51.8239280  52.2833960
  56.9392650  52.5479600  52.8113360  63.9429290  53.8249670  55.8472240
  63.1303800  53.4506560  55.5068120  64.4470930  53.0694750  56.1493430
  68.4454270  50.4892120  57.0855310  69.0483640  51.0612330  57.5603830
  67.7047260  51.0531560  56.8629210  71.5888870  50.8913680  52.3595590
  71.7839500  51.7897130  52.6263020  70.8018740  50.6600760  52.8528540
  58.3850160  66.5726850  52.7988210  57.8597780  66.9534880  52.0950170
  58.3094740  67.1977620  53.5197920  59.7740630  52.2374450  51.3971900
  60.3033390  51.4504250  51.2679850  60.4068950  52.9165640  51.6307430
  61.9678470  51.9749590  54.4517290  61.3381210  51.2736900  54.6187420
  61.4283610  52.7353720  54.2350450  73.1415480  68.1314390  54.1202150
  73.3167670  67.4452130  53.4763070  72.4437050  68.6561440  53.7278820
  60.9843130  68.5209230  51.6737460  61.7161950  68.2368510  51.1261350
  61.2436800  68.2822510  52.5636840  60.1457920  64.6373960  51.6783790
  59.5166800  65.1059060  52.2269620  60.2605750  63.7923180  52.1129980
  67.6007640  58.6879620  37.8284990  67.5201690  57.7734230  37.5576700
  67.1872060  59.1846690  37.1224700  65.7325680  60.4658640  39.7094260
  64.9567780  59.9859080  39.9992830  66.3838610  59.7864290  39.5350420
  59.7491510  60.7778450  40.5870020  58.9176390  60.5227160  40.9866530
  60.3572490  60.8489220  41.3227940  69.7533110  64.8718830  38.4893390
  69.2914640  64.1006070  38.8180560  70.5658660  64.8984900  38.9945840
  59.7292770  64.8118540  40.7828040  60.0320810  63.9216280  40.6038260
  60.4736360  65.3688760  40.5550290  58.1583460  55.7380340  34.3712410
  57.2700160  56.0796310  34.2692290  58.4424650  55.5380660  33.4793240
  56.1216470  58.3385990  40.2552110  56.6932580  57.5708190  40.2555750
  56.1218010  58.6374750  39.3458720  65.9796420  67.1576840  38.1097380
  65.3607860  67.6134340  37.5391820  66.8348200  67.3128300  37.7087080
  65.1734670  63.1415830  39.7164420  65.1042950  62.2005770  39.5553550
  65.9354530  63.2317240  40.2886990  57.3641340  53.7470350  42.0421040
  57.1844180  52.8496100  42.3223800  56.9621420  54.2942220  42.7167990
  66.2039840  55.9486210  39.9433350  66.5804660  55.0758090  39.8307020
  66.1059350  56.2844910  39.0523790  60.3344850  54.3211840  35.4050790
  60.4411600  55.2215570  35.7119550  59.4237210  54.2729810  35.1145440
  69.9863960  53.4436650  36.8761690  70.8073580  52.9533220  36.9187170
  70.0198040  54.0334310  37.6293530  57.9828010  56.2430850  40.6503380
  58.6638120  56.5069220  41.2690780  57.6676060  55.4031720  40.9841390
  62.1752580  57.2898210  39.7375970  62.6830800  57.7879180  40.3780990
  62.7065820  56.5133410  39.5615330  74.2763510  55.4603400  43.4405320
  73.5715680  55.8485110  42.9220430  74.5421430  56.1553690  44.0426250
  60.4588680  51.9296770  44.0039390  60.4607120  52.4469160  43.1985290
  59.6292990  51.4526950  43.9809320  66.8459770  62.0416080  35.5029290
  66.2277040  62.5065530  34.9392010  67.3583020  62.7343560  35.9198800
  61.7091530  61.5691950  42.1812890  61.3760910  62.1960870  42.8233960
  61.8858210  62.0953830  41.4014560  70.2225440  55.3837030  39.6489230
  69.5181010  55.6721920  40.2292340  70.5837600  56.1937140  39.2888790
  60.1404010  53.6406730  42.0109840  60.4820820  54.4848780  41.7163710
  59.2019820  53.7890470  42.1275180  60.9210630  63.5372750  43.9962070
  61.5384630  64.2123830  43.7146520  60.0603750  63.9460730  43.9049570
  71.8388220  65.0012160  41.9116710  71.1551740  65.6711270  41.9033380
  72.3782510  65.1992810  41.1461570  73.2912360  54.8291820  40.0398440
  72.3437270  54.8630800  40.1713870  73.6162350  55.6430770  40.4247800
  63.8231900  51.1289000  38.3354430  64.1306880  50.5735890  37.6189930
  62.8932600  51.2633460  38.1527420  69.3746960  66.8456290  40.6261890
  69.3874120  66.4418580  39.7584150  68.8222180  67.6203580  40.5223320
  70.6692380  63.5672510  35.7152060  70.5588710  62.6246840  35.8401480
  70.6660630  63.9288150  36.6014820  68.7732400  61.7486130  41.9544500
  69.1901190  61.5346240  41.1197960  69.4972220  62.0058920  42.5253120
  66.2112660  59.1937830  35.0714550  65.2841940  59.1275210  35.3003020
  66.3637480  60.1317960  34.9569790  66.1981740  55.4654830  32.0681710
  65.2585410  55.6268790  32.1534170  66.5165000  56.1840510  31.5217700
  72.7194500  60.1473350  42.0460740  71.8913130  60.2166440  41.5710870
  73.3144980  60.7327660  41.5776570  70.2409950  60.7558130  35.5749800
  69.6222370  60.4177680  34.9276100  70.2234400  60.1117890  36.2828990
  69.6836510  56.9342670  42.9915610  69.2707690  57.7596380  43.2455600
  68.9512460  56.3487710  42.7991970  61.8169300  59.7202570  37.8534280
  61.4126300  59.0079820  37.3580180  61.9032420  59.3755810  38.7422320
  62.2851000  63.4070130  40.0173490  61.9879290  62.8015600  39.3381270
  63.2350820  63.4447440  39.9062850  60.5297920  56.4945780  41.6333320
  61.0812510  56.6041120  40.8586570  61.0441430  56.8683380  42.3488550
  70.3736610  66.9802000  43.6796590  69.8967170  67.7874190  43.4869200
  69.6898400  66.3280330  43.8322800  61.3769430  63.1451820  46.6681290
  60.4797960  63.3691790  46.9154690  61.4022300  63.2686760  45.7192690
  68.4174650  59.9944940  32.5822550  68.8567930  59.1567370  32.4360370
  69.1303070  60.6274340  32.6686690  60.2040650  60.0165140  45.2438660
  60.0648420  60.8887940  45.6126060  59.3222010  59.6737950  45.0986600
  62.0021000  65.9586840  47.4523810  61.9736430  66.3629790  46.5852240
  61.8385970  65.0297200  47.2895410  71.9991790  51.2487750  30.8963590
  71.6864450  51.3414580  31.7962660  72.7604260  51.8268780  30.8461020
  58.5173930  58.6147550  35.3540930  58.3971530  59.3409640  34.7422200
  58.2074820  57.8450460  34.8768840  73.9535820  66.7413940  48.7487980
  74.4295540  67.2196830  49.4277060  74.5742980  66.6731430  48.0233480
  56.1559300  61.7862690  41.1609570  56.2339720  61.9211460  40.2165290
  56.7700980  61.0778580  41.3537690  73.3569070  63.9326790  45.9087990
  73.4832130  63.6938670  44.9905170  73.3990450  63.1011330  46.3810070
  67.2185810  67.6354790  44.4782800  67.7330480  67.5462800  45.2805230
  66.3754890  67.9814490  44.7710710  73.2093080  55.9859250  46.8737730
  72.5937350  56.4938920  46.3453190  72.8889500  55.0857580  46.8163670
  56.2118820  62.8276860  43.7004030  56.3749860  62.3582220  42.8823400
  56.6771270  62.3200420  44.3652870  60.9837590  51.9582620  38.7364600
  60.5405740  52.7392160  38.4049120  61.5422580  52.2812510  39.4435540
  65.2707400  54.8251140  44.3399920  64.8086770  55.0334160  45.1519860
  64.8685510  54.0110490  44.0370590  70.2711910  56.0460090  45.4696580
  69.4205500  55.7465840  45.7905650  70.1113700  56.2902100  44.5580400
  67.3661620  57.5461840  47.5695370  67.6915030  56.7125590  47.2297600
  68.1541950  58.0690360  47.7173700  64.0996410  51.5793320  33.6170430
  63.4750590  51.5753190  34.3423740  64.0126530  50.7124280  33.2206400
  63.0213490  52.5029950  40.5954200  63.3185820  53.4092780  40.5146220
  63.5699050  52.0148730  39.9813770  60.7751810  57.0816190  36.4645850
  60.5492730  56.8653360  37.3692470  59.9944340  57.5144650  36.1191820
  68.0049570  57.0879560  35.0636500  67.4058460  57.8115360  34.8800120
  68.5529180  57.0256340  34.2812950  63.2151020  57.9801770  47.1306120
  63.1194620  57.0396500  46.9806520  64.0583000  58.2016840  46.7354190
  66.6114440  55.7243100  37.0939780  67.0044010  56.0415300  36.2808470
  66.9731290  54.8454980  37.2084300  58.3461560  54.3915440  45.2839900
  57.9524950  55.2390650  45.4912680  57.6579960  53.7541810  45.4748540
  64.9206610  54.4750410  48.3536640  64.2304930  54.2822610  48.9882730
  65.6638910  54.7585050  48.8860940  55.6478610  52.3143900  39.3169980
  55.3591660  52.8846760  40.0294960  56.3924370  51.8348350  39.6801210
  55.8348840  56.2564020  30.5272700  55.7523510  57.1994780  30.6687690
  55.4831900  56.1138930  29.6485050  67.1969580  58.3148850  41.1890560
  66.4650700  58.8235660  41.5380660  66.7993920  57.4978830  40.8879340
  63.6346970  54.9903050  39.5943050  63.6383030  54.5493000  38.7447590
  64.5298090  55.3120380  39.7014870  59.4849350  54.8729540  38.5537260
  59.1449400  55.3504770  39.3104310  58.7226670  54.4194660  38.1938360
  63.6967120  55.9915130  32.5849810  63.8179940  55.9501610  33.5335630
  63.3115630  56.8539280  32.4296540  67.6595490  53.7682530  40.6013500
  67.6768230  54.2191180  41.4455350  67.4111070  52.8688170  40.8146940
  62.7088620  58.3016270  31.9833110  62.1405520  57.8534520  31.3569020
  63.4177620  58.6609050  31.4498260  71.0866240  51.1814710  46.4399880
  71.4112010  50.4504370  46.9657860  71.1222750  50.8628350  45.5380870
  57.7857800  62.2028290  45.8599840  57.4012590  61.5621960  46.4582800
  58.0969990  62.9064410  46.4294570  63.9354940  59.0504830  41.3408460
  64.3025070  58.5763400  42.0869800  63.7460000  59.9246400  41.6816800
  56.7995430  53.7948520  37.4701930  56.5142350  53.4304190  38.3080550
  56.7374290  53.0628980  36.8565070  61.7254310  58.0913470  43.6592670
  61.4211380  58.9705450  43.8843030  62.6800770  58.1513260  43.6950110
  71.0124080  61.2939820  40.0485910  71.7323200  61.7895110  39.6582020
  70.8105900  60.6157710  39.4039780  66.4734020  52.6877780  34.1915300
  65.6598630  52.1890950  34.1160610  66.2795970  53.5276030  33.7751650
  66.3942880  61.3648880  45.9354910  66.3280190  60.4444550  45.6812500
  65.7648020  61.4624320  46.6499550  69.1882410  57.0597430  32.4877460
  70.0762030  57.3714660  32.3128800  69.1587500  56.1869680  32.0958040
  60.2973500  61.9654840  37.8938330  60.8152170  61.1623100  37.8395220
  59.8457520  61.9033980  38.7355160  57.7818040  58.9316210  44.8064030
  57.4232980  59.5970060  45.3937370  57.4872600  58.0999760  45.1776650
  60.9831160  59.3900450  47.6903580  60.6831300  59.5357630  46.7931400
  61.7542400  58.8305740  47.5976970  66.3259610  64.1869450  45.6858710
  66.3404150  63.2550410  45.4677620  65.6184710  64.2729210  46.3248480
  71.4596680  58.3709270  31.9557320  71.3760400  58.8023490  31.1053760
  72.1790870  58.8307620  32.3884140  72.5370820  60.8276790  45.0327290
  71.8119010  61.4205570  44.8356680  73.0646280  60.8200330  44.2340660
  72.4883930  65.2251530  34.6839450  71.8460090  64.5707150  34.9583170
  72.1014590  65.6306620  33.9080120  68.0670410  62.5536960  38.5311140
  68.4194230  61.9565090  37.8712510  67.1832740  62.2281190  38.7019390
  56.2926090  58.9307470  31.4298630  57.1620940  59.2132270  31.7134550
  55.8016410  59.7443340  31.3147440  63.4560900  60.3180680  35.5506910
  63.9123680  61.1285930  35.7767100  63.1049110  60.0003820  36.3825400
  65.7593510  65.8287020  42.7799210  66.4035730  66.0346400  43.4572630
  66.1222950  65.0675420  42.3270060  59.3572680  50.6618330  36.0229430
  59.2287310  50.6536230  36.9714350  58.5334700  51.0001420  35.6720440
  67.0325590  63.8319370  41.4976660  67.6747820  63.1312530  41.6108830
  67.5574940  64.6117810  41.3173550  70.8781310  64.1167990  31.2215800
  70.6518890  63.3998430  31.8140440  70.4877510  63.8680430  30.3837550
  68.8063210  64.6314270  44.7012720  69.1419450  65.2180960  45.3790640
  67.8863550  64.5006980  44.9310510  56.3566610  52.4209450  45.4836130
  55.6425130  52.6206370  46.0888740  56.7761650  51.6449020  45.8550930
  70.4597560  62.0339930  32.8829960  70.1719260  62.4952620  33.6707840
  71.2549730  61.5737700  33.1514180  56.6439200  66.4089710  46.4702660
  56.7530320  65.4684450  46.3298050  55.9919760  66.6744460  45.8216390
  64.6351790  64.6805600  47.8700780  64.3148660  63.9614840  48.4146470
  63.9610150  65.3560670  47.9436840  67.8505390  54.9131760  43.2337580
  68.2186210  54.0926970  43.5617150  66.9903590  54.9733650  43.6493230
  71.2167420  53.8688700  34.0425140  70.5880580  53.9734370  33.3283370
  70.7219340  54.0885480  34.8319020  63.1851450  56.1474650  35.4583020
  62.4767600  56.6160990  35.8996630  63.4695930  55.4896660  36.0928210
  64.8107380  57.5671350  43.4575550  65.3092630  58.0417170  44.1227400
  64.9530330  56.6434870  43.6645580  67.2166880  52.8725310  36.8978810
  67.0934660  52.8911440  35.9488320  68.1651440  52.9204250  37.0177210
  61.3886470  54.4559730  32.8333730  62.2377000  54.8929880  32.7673920
  61.0217740  54.7679990  33.6605790  72.0174240  53.7839310  44.3003940
  71.5147840  54.5244710  44.6397750  72.8330900  54.1723310  43.9840730
  70.3096250  59.0272490  37.7465300  69.3686390  59.0422720  37.9212990
  70.6240320  58.2408450  38.1925600  60.2877890  60.7092090  31.3069260
  61.0541160  60.5973450  31.8694690  60.3652580  60.0130060  30.6546030
  58.9824650  58.1417160  31.9902150  59.0628240  57.1944670  32.1019550
  59.8744400  58.4724040  32.0962810  72.3121830  66.1981340  39.4219560
  72.4369250  67.0212510  39.8943370  73.1787390  65.9872070  39.0743710
  59.7839360  68.2912550  39.0936690  60.5201840  67.7428010  39.3645260
  60.1680280  69.1568560  38.9542680  58.7897640  67.4758620  48.2822270
  59.5910370  67.7970670  48.6957670  58.2749460  67.1154200  49.0042180
  67.6262270  63.5838490  48.2297680  67.0200430  63.6070090  47.4893430
  67.3216380  62.8521530  48.7664930  69.0562640  67.3118780  46.8407090
  70.0084390  67.2276800  46.7907330  68.9090860  67.9760490  47.5140880
  56.5095450  59.9632080  47.2258320  57.0134470  59.3839360  47.7974550
  55.7702870  60.2472310  47.7634690  63.5633390  61.3703070  46.7593840
  62.7979060  61.9388070  46.6748510  63.7449350  61.0779280  45.8662070
  66.6521800  61.7466300  31.3846600  66.1031900  62.1935600  32.0289340
  67.2741060  61.2415550  31.9084270  70.7056740  63.1008400  47.3168860
  71.4466210  63.4384160  46.8136320  69.9429420  63.2700460  46.7638630
  58.5418530  58.1061670  48.1208390  58.5823870  57.8075540  49.0293620
  59.3964030  58.5069280  47.9615910  62.3196920  60.7057220  33.2811900
  62.7413340  60.5397090  34.1243290  62.4447760  59.8957450  32.7867040
  60.4824340  56.6853770  46.0882880  59.9520800  56.1944720  45.4606220
  61.1512410  57.1137970  45.5540810  64.8324560  59.7294830  30.5289000
  65.3530220  59.0143850  30.1630150  65.4792960  60.3680700  30.8289510
  69.3802400  61.1523230  45.8524070  69.7943420  61.3068310  46.7014490
  68.4453400  61.2778450  46.0149850  69.8524570  58.4919390  47.8563220
  70.4345340  57.7371710  47.7683700  70.0286340  59.0226830  47.0794700
  60.9696640  53.6516140  46.1680170  60.8753510  53.0336890  45.4431040
  60.3894030  54.3782430  45.9410080  63.7358080  52.2089380  43.2007560
  63.2875380  52.2313640  42.3553110  63.1023280  51.8108400  43.7977860
  64.1417630  61.1043710  43.8220000  64.5605740  61.9476440  43.6496240
  63.2226260  61.2415750  43.5926780  66.4781530  58.8359890  45.2057840
  66.5977740  58.2401030  45.9452680  67.3375530  58.8729580  44.7859140
  68.8169430  59.3897080  43.7820350  68.2904650  59.9139700  43.1785490
  69.1600770  60.0224470  44.4130080  61.2155820  56.7790450  30.2270060
  61.0144880  55.9157810  30.5883400  61.0447870  56.6923810  29.2891660
  61.9925050  67.4096720  44.9377730  61.4546140  68.1342780  44.6186430
  62.2459010  66.9327060  44.1475070  63.2450300  55.3781240  46.4633660
  63.8349990  55.0697090  47.1511480  62.4270540  54.9060990  46.6193560
  68.0643730  54.9947050  46.6966680  67.3759250  54.3328590  46.6316670
  68.7849750  54.5485320  47.1415140  68.6944130  51.5898680  32.7556940
  68.9746420  50.7466580  33.1116360  67.9209860  51.8221790  33.2695690
  60.0138620  53.8791070  30.2147940  60.3164520  53.8858500  29.3067090
  60.7533210  53.5288930  30.7115600  64.8487260  68.6447930  45.1964380
  64.7745960  69.5483070  45.5036750  63.9466100  68.3259830  45.1686450
  63.2323550  52.8225690  31.2004140  62.8845550  52.1449680  30.6206590
  63.4336320  52.3615200  32.0147530  56.7404760  66.8393110  41.2379630
  56.3035750  67.0193910  42.0703780  57.3082440  67.5967730  41.0961350
  72.3766940  66.3410110  45.5256940  71.7768930  66.4002670  44.7820860
  72.5060840  65.4015090  45.6553790  73.6168390  64.0827930  30.8626650
  72.7861350  64.1504580  31.3333880  73.7940220  64.9732050  30.5593510
  73.0724850  60.8275410  33.3660850  73.8343760  61.3972060  33.4720540
  73.0879220  60.2602610  34.1369160  56.5729190  59.3513340  37.5968510
  55.9178030  59.0824980  36.9528210  57.4107140  59.2417820  37.1470490
  74.0784820  61.6825510  38.2102780  74.4493650  60.8992830  37.8038750
  74.7186750  62.3714610  38.0320080  71.0618580  63.0662090  43.6233100
  70.2478420  63.4959250  43.8858890  71.4692780  63.6780500  43.0102150
  73.1244020  61.1209780  30.5233370  73.3992860  62.0288660  30.3952590
  72.9354760  61.0572310  31.4595360  69.5219630  54.1454630  31.8187000
  69.9404510  53.9585610  30.9783660  69.2155690  53.2933680  32.1289930
  73.0209360  59.0578770  35.5162800  72.6452960  58.2906700  35.0844090
  72.2912480  59.4401470  36.0037730  57.6105120  59.7365910  42.1371850
  57.9778160  59.6493310  43.0167870  57.0415940  58.9732460  42.0378710
  72.4108980  58.2050290  45.1502320  72.1795070  57.9763040  44.2500270
  72.6713530  59.1249840  45.1047210  57.1621120  56.6475000  46.0430270
  56.2677170  56.6141760  46.3823980  57.7018670  56.8461790  46.8081520
  70.8497050  53.4306720  47.9282020  71.7267230  53.4390120  48.3116020
  70.8617890  52.6937560  47.3174370  55.7867270  56.5612270  33.5393840
  54.8831350  56.8242470  33.3645500  56.2707890  56.8323440  32.7593800
  72.2960320  57.2836260  38.8170040  72.8197800  56.7898910  38.1860210
  72.8819740  57.4186620  39.5617610  72.4750040  57.3676130  42.3389590
  71.5252750  57.3339670  42.4534580  72.6563050  58.2776240  42.1039360
  58.3294480  55.6177810  31.4488220  59.0386180  55.1961030  30.9635500
  57.6134420  55.6853040  30.8171570  57.9768640  51.6717140  30.4890870
  58.6996770  52.2126080  30.8072090  58.2493160  51.3980560  29.6132410
  71.7860290  56.5409610  34.7562450  72.2819410  56.3080480  35.5411330
  71.5876360  55.7021450  34.3400090  57.6660830  50.9223330  40.3913490
  58.3137020  50.3720710  39.9508650  58.0862670  51.1766480  41.2129300
  73.2147450  55.1770560  37.2900130  73.1046730  55.0226600  38.2282400
  73.9755040  54.6491500  37.0475540  71.5613170  51.1164690  43.7483130
  72.1985390  51.7298830  44.1142320  71.7088060  51.1525350  42.8032360
  74.1037720  53.0078480  30.5306270  75.0287030  52.8759660  30.3224560
  74.0813510  53.0871300  31.4842720  74.1776210  53.7789140  33.1562980
  73.3827710  53.7134260  33.6855890  74.3819490  54.7139780  33.1448330
  71.1194630  67.8180690  37.1501370  71.7153700  67.4965260  36.4735790
  71.3772780  67.3452510  37.9414640  57.4192830  51.0779000  43.1338810
  57.0707650  51.5342820  43.8996990  57.0880530  50.1836130  43.2161240
  59.0257200  64.2498600  47.2992000  58.9826830  63.8791510  48.1806460
  59.1568210  65.1876170  47.4393820  62.7263230  65.8058190  42.9001720
  62.4854590  66.0732750  42.0132240  63.6665870  65.9763920  42.9552580
  64.9317650  52.2690880  46.6558230  64.8706540  52.8612710  47.4053640
  65.8718030  52.1616840  46.5108490  67.5692210  51.9260940  46.2950520
  68.1832620  52.2440230  45.6331600  68.1141770  51.4409530  46.9146380
  73.9867390  67.8252570  43.7012360  73.4925670  68.2221440  42.9839490
  73.3780680  67.2001780  44.0949640  58.0913470  50.6055200  46.4089580
  58.6396460  50.4243250  45.6455690  58.1568780  49.8149310  46.9445890
  58.8645230  67.1960850  44.4189780  58.2705550  67.0645550  45.1579820
  58.8569070  66.3598990  43.9531880  68.3100250  50.4893080  42.6219810
  67.4360090  50.8228190  42.4192740  68.2011000  50.0166260  43.4471680
  69.2172230  52.6963950  44.0061530  68.8885590  51.8815710  43.6263260
  70.1654530  52.6533760  43.8827220  71.6706840  68.4675990  40.9799100
  71.2109810  69.2191800  40.6057120  71.0419300  67.7482460  40.9213900
  58.4957460  64.5619230  43.3697820  57.7691520  63.9424520  43.3023770
  58.5566610  64.9559840  42.4995900  62.1002560  66.7764230  40.1547230
  62.6167580  66.1651590  39.6295490  62.7499940  67.2793010  40.6458240
  64.8398060  67.6672720  40.9816210  65.1275870  67.4127020  40.1049220
  65.3521280  67.1150080  41.5721780  66.0575070  51.4062920  41.5612720
  65.2746860  51.8808420  41.8409480  65.7638000  50.5017750  41.4525900
  70.6096140  52.1086020  39.6061810  71.0504230  52.0531120  38.7583410
  70.3403730  53.0244030  39.6771990  72.4734710  51.7401260  37.6170630
  72.4123110  50.7962480  37.4701650  73.2526740  51.8481350  38.1624090
  57.4015480  51.7110400  34.0826440  58.1594840  51.8239280  33.5090470
  56.9392650  52.5479600  34.0369870  63.9429290  53.8249670  37.0728750
  63.1303800  53.4506560  36.7324630  64.4470930  53.0694750  37.3749940
  68.4454270  50.4892120  38.3111820  69.0483640  51.0612330  38.7860340
  67.7047260  51.0531560  38.0885720  71.5888870  50.8913680  33.5852100
  71.7839500  51.7897130  33.8519530  70.8018740  50.6600760  34.0785050
  59.7740630  52.2374450  32.6228410  60.3033390  51.4504250  32.4936360
  60.4068950  52.9165640  32.8563940  61.9678470  51.9749590  35.6773800
  61.3381210  51.2736900  35.8443930  61.4283610  52.7353720  35.4606960
  64.9070420  68.5888820  48.3484410  65.8337730  68.3533090  48.3920370
  64.8920850  69.4160820  47.8670440  73.1415480  68.1314390  35.3458660
  73.3167670  67.4452130  34.7019580  72.4437050  68.6561440  34.9535330
  62.0934030  51.2533570  48.1126290  61.8118300  51.7567170  47.3487110
  62.4753730  50.4555320  47.7468420  68.6949490  50.6687150  48.6906760
  68.5814940  50.9881760  49.5858280  69.5119230  51.0699660  48.3944040
  71.4747980  67.8158680  48.1725450  72.2673300  67.3207910  47.9651410
  71.7681130  68.4948820  48.7801060  67.6007640  58.6879620  19.0541500
  67.5201690  57.7734230  18.7833210  67.1872060  59.1846690  18.3481210
  65.7325680  60.4658640  20.9350770  64.9567780  59.9859080  21.2249340
  66.3838610  59.7864290  20.7606930  59.7491510  60.7778450  21.8126530
  58.9176390  60.5227160  22.2123040  60.3572490  60.8489220  22.5484450
  69.7533110  64.8718830  19.7149900  69.2914640  64.1006070  20.0437070
  70.5658660  64.8984900  20.2202350  59.7292770  64.8118540  22.0084550
  60.0320810  63.9216280  21.8294770  60.4736360  65.3688760  21.7806800
  58.1583460  55.7380340  15.5968920  57.2700160  56.0796310  15.4948800
  58.4424650  55.5380660  14.7049750  56.1216470  58.3385990  21.4808620
  56.6932580  57.5708190  21.4812260  56.1218010  58.6374750  20.5715230
  65.9796420  67.1576840  19.3353890  65.3607860  67.6134340  18.7648330
  66.8348200  67.3128300  18.9343590  65.1734670  63.1415830  20.9420930
  65.1042950  62.2005770  20.7810060  65.9354530  63.2317240  21.5143500
  57.3641340  53.7470350  23.2677550  57.1844180  52.8496100  23.5480310
  56.9621420  54.2942220  23.9424500  66.2039840  55.9486210  21.1689860
  66.5804660  55.0758090  21.0563530  66.1059350  56.2844910  20.2780300
  60.3344850  54.3211840  16.6307300  60.4411600  55.2215570  16.9376060
  59.4237210  54.2729810  16.3401950  69.9863960  53.4436650  18.1018200
  70.8073580  52.9533220  18.1443680  70.0198040  54.0334310  18.8550040
  57.9828010  56.2430850  21.8759890  58.6638120  56.5069220  22.4947290
  57.6676060  55.4031720  22.2097900  62.1752580  57.2898210  20.9632480
  62.6830800  57.7879180  21.6037500  62.7065820  56.5133410  20.7871840
  74.2763510  55.4603400  24.6661830  73.5715680  55.8485110  24.1476940
  74.5421430  56.1553690  25.2682760  60.4588680  51.9296770  25.2295900
  60.4607120  52.4469160  24.4241800  59.6292990  51.4526950  25.2065830
  66.8459770  62.0416080  16.7285800  66.2277040  62.5065530  16.1648520
  67.3583020  62.7343560  17.1455310  61.7091530  61.5691950  23.4069400
  61.3760910  62.1960870  24.0490470  61.8858210  62.0953830  22.6271070
  70.2225440  55.3837030  20.8745740  69.5181010  55.6721920  21.4548850
  70.5837600  56.1937140  20.5145300  60.1404010  53.6406730  23.2366350
  60.4820820  54.4848780  22.9420220  59.2019820  53.7890470  23.3531690
  60.9210630  63.5372750  25.2218580  61.5384630  64.2123830  24.9403030
  60.0603750  63.9460730  25.1306080  56.2142970  62.7272610  14.1025430
  55.8370950  63.2159710  13.3710330  56.4716040  63.3997890  14.7331960
  71.8388220  65.0012160  23.1373220  71.1551740  65.6711270  23.1289890
  72.3782510  65.1992810  22.3718080  73.2912360  54.8291820  21.2654950
  72.3437270  54.8630800  21.3970380  73.6162350  55.6430770  21.6504310
  63.8231900  51.1289000  19.5610940  64.1306880  50.5735890  18.8446440
  62.8932600  51.2633460  19.3783930  69.3746960  66.8456290  21.8518400
  69.3874120  66.4418580  20.9840660  68.8222180  67.6203580  21.7479830
  70.6692380  63.5672510  16.9408570  70.5588710  62.6246840  17.0657990
  70.6660630  63.9288150  17.8271330  68.7732400  61.7486130  23.1801010
  69.1901190  61.5346240  22.3454470  69.4972220  62.0058920  23.7509630
  66.2112660  59.1937830  16.2971060  65.2841940  59.1275210  16.5259530
  66.3637480  60.1317960  16.1826300  66.1981740  55.4654830  13.2938220
  65.2585410  55.6268790  13.3790680  66.5165000  56.1840510  12.7474210
  72.7194500  60.1473350  23.2717250  71.8913130  60.2166440  22.7967380
  73.3144980  60.7327660  22.8033080  70.2409950  60.7558130  16.8006310
  69.6222370  60.4177680  16.1532610  70.2234400  60.1117890  17.5085500
  69.6836510  56.9342670  24.2172120  69.2707690  57.7596380  24.4712110
  68.9512460  56.3487710  24.0248480  61.8169300  59.7202570  19.0790790
  61.4126300  59.0079820  18.5836690  61.9032420  59.3755810  19.9678830
  62.2851000  63.4070130  21.2430000  61.9879290  62.8015600  20.5637780
  63.2350820  63.4447440  21.1319360  60.5297920  56.4945780  22.8589830
  61.0812510  56.6041120  22.0843080  61.0441430  56.8683380  23.5745060
  70.3736610  66.9802000  24.9053100  69.8967170  67.7874190  24.7125710
  69.6898400  66.3280330  25.0579310  68.4174650  59.9944940  13.8079060
  68.8567930  59.1567370  13.6616880  69.1303070  60.6274340  13.8943200
  60.2040650  60.0165140  26.4695170  60.0648420  60.8887940  26.8382570
  59.3222010  59.6737950  26.3243110  66.5270030  64.9341010  17.7760300
  66.9665940  65.6765340  17.3615690  66.4656920  65.1767580  18.6999260
  71.9991790  51.2487750  12.1220100  71.6864450  51.3414580  13.0219170
  72.7604260  51.8268780  12.0717530  58.5173930  58.6147550  16.5797440
  58.3971530  59.3409640  15.9678710  58.2074820  57.8450460  16.1025350
  73.9535820  66.7413940  29.9744490  74.4295540  67.2196830  30.6533570
  74.5742980  66.6731430  29.2489990  56.1559300  61.7862690  22.3866080
  56.2339720  61.9211460  21.4421800  56.7700980  61.0778580  22.5794200
  57.4006930  63.4862880  18.7972260  56.9935010  63.6277470  17.9425860
  58.2919940  63.2023040  18.5943470  73.3569070  63.9326790  27.1344500
  73.4832130  63.6938670  26.2161680  73.3990450  63.1011330  27.6066580
  69.1940210  67.9210130  15.1323310  69.0341350  67.6313070  16.0305140
  69.0286920  67.1450260  14.5968540  61.6728590  67.7008660  16.9094930
  61.4971070  66.7844200  16.6962730  60.8184330  68.0595950  17.1492730
  68.8966340  65.4297690  13.6921310  68.2031500  65.4274980  13.0323590
  69.6389200  65.0057010  13.2615480  68.4616270  67.0560400  17.7669800
  68.9173220  66.2749780  18.0808420  68.8008790  67.7667220  18.3110980
  73.2093080  55.9859250  28.0994240  72.5937350  56.4938920  27.5709700
  72.8889500  55.0857580  28.0420180  60.9837590  51.9582620  19.9621110
  60.5405740  52.7392160  19.6305630  61.5422580  52.2812510  20.6692050
  65.2707400  54.8251140  25.5656430  64.8086770  55.0334160  26.3776370
  64.8685510  54.0110490  25.2627100  70.2711910  56.0460090  26.6953090
  69.4205500  55.7465840  27.0162160  70.1113700  56.2902100  25.7836910
  67.3661620  57.5461840  28.7951880  67.6915030  56.7125590  28.4554110
  68.1541950  58.0690360  28.9430210  64.0996410  51.5793320  14.8426940
  63.4750590  51.5753190  15.5680250  64.0126530  50.7124280  14.4462910
  63.0213490  52.5029950  21.8210710  63.3185820  53.4092780  21.7402730
  63.5699050  52.0148730  21.2070280  60.7751810  57.0816190  17.6902360
  60.5492730  56.8653360  18.5948980  59.9944340  57.5144650  17.3448330
  68.0049570  57.0879560  16.2893010  67.4058460  57.8115360  16.1056630
  68.5529180  57.0256340  15.5069460  63.2151020  57.9801770  28.3562630
  63.1194620  57.0396500  28.2063030  64.0583000  58.2016840  27.9610700
  66.6114440  55.7243100  18.3196290  67.0044010  56.0415300  17.5064980
  66.9731290  54.8454980  18.4340810  58.3461560  54.3915440  26.5096410
  57.9524950  55.2390650  26.7169190  57.6579960  53.7541810  26.7005050
  64.9206610  54.4750410  29.5793150  64.2304930  54.2822610  30.2139240
  65.6638910  54.7585050  30.1117450  55.6478610  52.3143900  20.5426490
  55.3591660  52.8846760  21.2551470  56.3924370  51.8348350  20.9057720
  55.8348840  56.2564020  11.7529210  55.7523510  57.1994780  11.8944200
  55.4831900  56.1138930  10.8741560  67.1969580  58.3148850  22.4147070
  66.4650700  58.8235660  22.7637170  66.7993920  57.4978830  22.1135850
  63.6346970  54.9903050  20.8199560  63.6383030  54.5493000  19.9704100
  64.5298090  55.3120380  20.9271380  59.4849350  54.8729540  19.7793770
  59.1449400  55.3504770  20.5360820  58.7226670  54.4194660  19.4194870
  63.6967120  55.9915130  13.8106320  63.8179940  55.9501610  14.7592140
  63.3115630  56.8539280  13.6553050  67.6595490  53.7682530  21.8270010
  67.6768230  54.2191180  22.6711860  67.4111070  52.8688170  22.0403450
  62.7088620  58.3016270  13.2089620  62.1405520  57.8534520  12.5825530
  63.4177620  58.6609050  12.6754770  71.0866240  51.1814710  27.6656390
  71.4112010  50.4504370  28.1914370  71.1222750  50.8628350  26.7637380
  63.9354940  59.0504830  22.5664970  64.3025070  58.5763400  23.3126310
  63.7460000  59.9246400  22.9073310  56.7995430  53.7948520  18.6958440
  56.5142350  53.4304190  19.5337060  56.7374290  53.0628980  18.0821580
  61.7254310  58.0913470  24.8849180  61.4211380  58.9705450  25.1099540
  62.6800770  58.1513260  24.9206620  60.2536100  62.2974460  15.4816030
  59.4798360  61.7572080  15.3214750  60.9830730  61.7781070  15.1433790
  71.0124080  61.2939820  21.2742420  71.7323200  61.7895110  20.8838530
  70.8105900  60.6157710  20.6296290  66.4734020  52.6877780  15.4171810
  65.6598630  52.1890950  15.3417120  66.2795970  53.5276030  15.0008160
  66.3942880  61.3648880  27.1611420  66.3280190  60.4444550  26.9069010
  65.7648020  61.4624320  27.8756060  69.1882410  57.0597430  13.7133970
  70.0762030  57.3714660  13.5385310  69.1587500  56.1869680  13.3214550
  60.2973500  61.9654840  19.1194840  60.8152170  61.1623100  19.0651730
  59.8457520  61.9033980  19.9611670  65.1843000  63.2321120  14.3922140
  65.5258700  63.9763350  13.8965460  64.3555710  63.5452240  14.7546970
  57.7818040  58.9316210  26.0320540  57.4232980  59.5970060  26.6193880
  57.4872600  58.0999760  26.4033160  60.9831160  59.3900450  28.9160090
  60.6831300  59.5357630  28.0187910  61.7542400  58.8305740  28.8233480
  71.4596680  58.3709270  13.1813830  71.3760400  58.8023490  12.3310270
  72.1790870  58.8307620  13.6140650  72.5370820  60.8276790  26.2583800
  71.8119010  61.4205570  26.0613190  73.0646280  60.8200330  25.4597170
  72.4883930  65.2251530  15.9095960  71.8460090  64.5707150  16.1839680
  72.1014590  65.6306620  15.1336630  68.0670410  62.5536960  19.7567650
  68.4194230  61.9565090  19.0969020  67.1832740  62.2281190  19.9275900
  64.1533690  63.3134650  17.1638060  64.8404820  63.8603860  17.5445650
  63.3666110  63.8575380  17.1987670  56.2926090  58.9307470  12.6555140
  57.1620940  59.2132270  12.9391060  55.8016410  59.7443340  12.5403950
  63.4560900  60.3180680  16.7763420  63.9123680  61.1285930  17.0023610
  63.1049110  60.0003820  17.6081910  65.7593510  65.8287020  24.0055720
  66.4035730  66.0346400  24.6829140  66.1222950  65.0675420  23.5526570
  59.3572680  50.6618330  17.2485940  59.2287310  50.6536230  18.1970860
  58.5334700  51.0001420  16.8976950  67.0325590  63.8319370  22.7233170
  67.6747820  63.1312530  22.8365340  67.5574940  64.6117810  22.5430060
  70.8781310  64.1167990  12.4472310  70.6518890  63.3998430  13.0396950
  70.4877510  63.8680430  11.6094060  68.8063210  64.6314270  25.9269230
  69.1419450  65.2180960  26.6047150  67.8863550  64.5006980  26.1567020
  56.6597340  68.1434850  13.2216770  57.0194980  68.7424190  12.5674040
  56.5189680  68.6894740  13.9951800  56.3566610  52.4209450  26.7092640
  55.6425130  52.6206370  27.3145250  56.7761650  51.6449020  27.0807440
  70.4597560  62.0339930  14.1086470  70.1719260  62.4952620  14.8964350
  71.2549730  61.5737700  14.3770690  62.6765960  65.5266050  14.0390440
  62.6676060  66.2595740  13.4234950  61.7564320  65.2797630  14.1317400
  58.2772600  60.7480940  14.7837200  57.6700550  61.4879840  14.7932500
  58.7521950  60.8380300  13.9575400  67.8505390  54.9131760  24.4594090
  68.2186210  54.0926970  24.7873660  66.9903590  54.9733650  24.8749740
  71.2167420  53.8688700  15.2681650  70.5880580  53.9734370  14.5539880
  70.7219340  54.0885480  16.0575530  65.6625560  65.5894290  12.7015630
  65.7637540  65.3858280  11.7717610  64.7627300  65.3352570  12.9063410
  63.1851450  56.1474650  16.6839530  62.4767600  56.6160990  17.1253140
  63.4695930  55.4896660  17.3184720  64.8107380  57.5671350  24.6832060
  65.3092630  58.0417170  25.3483910  64.9530330  56.6434870  24.8902090
  67.2166880  52.8725310  18.1235320  67.0934660  52.8911440  17.1744830
  68.1651440  52.9204250  18.2433720  64.3043670  68.1080610  17.3963300
  64.5585170  68.0702000  16.4742670  63.3556150  67.9813940  17.3891550
  61.3886470  54.4559730  14.0590240  62.2377000  54.8929880  13.9930430
  61.0217740  54.7679990  14.8862300  72.0174240  53.7839310  25.5260450
  71.5147840  54.5244710  25.8654260  72.8330900  54.1723310  25.2097240
  70.3096250  59.0272490  18.9721810  69.3686390  59.0422720  19.1469500
  70.6240320  58.2408450  19.4182110  60.2877890  60.7092090  12.5325770
  61.0541160  60.5973450  13.0951200  60.3652580  60.0130060  11.8802540
  58.9824650  58.1417160  13.2158660  59.0628240  57.1944670  13.3276060
  59.8744400  58.4724040  13.3219320  72.3121830  66.1981340  20.6476070
  72.4369250  67.0212510  21.1199880  73.1787390  65.9872070  20.3000220
  59.7839360  68.2912550  20.3193200  60.5201840  67.7428010  20.5901770
  60.1680280  69.1568560  20.1799190  56.6684840  64.3586120  16.1934710
  55.7424620  64.6007260  16.1840120  57.1341270  65.1860380  16.0719460
  62.8941670  67.4642860  12.1418770  63.6870280  67.7531690  11.6900560
  62.3746020  67.0335030  11.4631250  71.9471840  66.6912990  13.5655510
  71.6613350  66.2778130  12.7509690  71.7491390  67.6200700  13.4456030
  63.4119070  62.6846270  12.0061120  63.3069710  62.0698620  12.7322500
  63.2443290  62.1612160  11.2224130  66.6521800  61.7466300  12.6103110
  66.1031900  62.1935600  13.2545850  67.2741060  61.2415550  13.1340780
  70.7056740  63.1008400  28.5425370  71.4466210  63.4384160  28.0392830
  69.9429420  63.2700460  27.9895140  58.5418530  58.1061670  29.3464900
  58.5823870  57.8075540  30.2550130  59.3964030  58.5069280  29.1872420
  62.3196920  60.7057220  14.5068410  62.7413340  60.5397090  15.3499800
  62.4447760  59.8957450  14.0123550  60.4824340  56.6853770  27.3139390
  59.9520800  56.1944720  26.6862730  61.1512410  57.1137970  26.7797320
  64.8324560  59.7294830  11.7545510  65.3530220  59.0143850  11.3886660
  65.4792960  60.3680700  12.0546020  69.3802400  61.1523230  27.0780580
  69.7943420  61.3068310  27.9271000  68.4453400  61.2778450  27.2406360
  69.8524570  58.4919390  29.0819730  70.4345340  57.7371710  28.9940210
  70.0286340  59.0226830  28.3051210  60.9696640  53.6516140  27.3936680
  60.8753510  53.0336890  26.6687550  60.3894030  54.3782430  27.1666590
  63.7358080  52.2089380  24.4264070  63.2875380  52.2313640  23.5809620
  63.1023280  51.8108400  25.0234370  64.1417630  61.1043710  25.0476510
  64.5605740  61.9476440  24.8752750  63.2226260  61.2415750  24.8183290
  66.4781530  58.8359890  26.4314350  66.5977740  58.2401030  27.1709190
  67.3375530  58.8729580  26.0115650  68.8169430  59.3897080  25.0076860
  68.2904650  59.9139700  24.4042000  69.1600770  60.0224470  25.6386590
  61.2155820  56.7790450  11.4526570  61.0144880  55.9157810  11.8139910
  61.0447870  56.6923810  10.5148170  63.2450300  55.3781240  27.6890170
  63.8349990  55.0697090  28.3767990  62.4270540  54.9060990  27.8450070
  68.0643730  54.9947050  27.9223190  67.3759250  54.3328590  27.8573180
  68.7849750  54.5485320  28.3671650  68.6944130  51.5898680  13.9813450
  68.9746420  50.7466580  14.3372870  67.9209860  51.8221790  14.4952200
  60.0138620  53.8791070  11.4404450  60.3164520  53.8858500  10.5323600
  60.7533210  53.5288930  11.9372110  63.2323550  52.8225690  12.4260650
  62.8845550  52.1449680  11.8463100  63.4336320  52.3615200  13.2404040
  65.3972590  67.8106440  14.0447250  66.2923380  68.1491410  14.0666010
  65.4290220  67.0885850  13.4171530  59.0368750  63.1833490  12.2734250
  59.4743620  63.7263160  12.9291830  59.5216480  62.3580440  12.2830590
  56.2514550  65.9722520  19.7254510  56.5817560  65.1043580  19.4933150
  56.6805550  66.1781040  20.5559470  60.8476470  64.3031530  17.3856480
  60.5472010  64.1796500  18.2860390  60.7413960  63.4440120  16.9772210
  56.7404760  66.8393110  22.4636140  56.3035750  67.0193910  23.2960290
  57.3082440  67.5967730  22.3217860  72.3766940  66.3410110  26.7513450
  71.7768930  66.4002670  26.0077370  72.5060840  65.4015090  26.8810300
  73.6168390  64.0827930  12.0883160  72.7861350  64.1504580  12.5590390
  73.7940220  64.9732050  11.7850020  73.0724850  60.8275410  14.5917360
  73.8343760  61.3972060  14.6977050  73.0879220  60.2602610  15.3625670
  56.5729190  59.3513340  18.8225020  55.9178030  59.0824980  18.1784720
  57.4107140  59.2417820  18.3727000  74.0784820  61.6825510  19.4359290
  74.4493650  60.8992830  19.0295260  74.7186750  62.3714610  19.2576590
  71.0618580  63.0662090  24.8489610  70.2478420  63.4959250  25.1115400
  71.4692780  63.6780500  24.2358660  73.1244020  61.1209780  11.7489880
  73.3992860  62.0288660  11.6209100  72.9354760  61.0572310  12.6851870
  69.5219630  54.1454630  13.0443510  69.9404510  53.9585610  12.2040170
  69.2155690  53.2933680  13.3546440  73.0209360  59.0578770  16.7419310
  72.6452960  58.2906700  16.3100600  72.2912480  59.4401470  17.2294240
  57.6105120  59.7365910  23.3628360  57.9778160  59.6493310  24.2424380
  57.0415940  58.9732460  23.2635220  72.4108980  58.2050290  26.3758830
  72.1795070  57.9763040  25.4756780  72.6713530  59.1249840  26.3303720
  57.1621120  56.6475000  27.2686780  56.2677170  56.6141760  27.6080490
  57.7018670  56.8461790  28.0338030  70.8497050  53.4306720  29.1538530
  71.7267230  53.4390120  29.5372530  70.8617890  52.6937560  28.5430880
  55.7867270  56.5612270  14.7650350  54.8831350  56.8242470  14.5902010
  56.2707890  56.8323440  13.9850310  72.2960320  57.2836260  20.0426550
  72.8197800  56.7898910  19.4116720  72.8819740  57.4186620  20.7874120
  72.4750040  57.3676130  23.5646100  71.5252750  57.3339670  23.6791090
  72.6563050  58.2776240  23.3295870  58.3294480  55.6177810  12.6744730
  59.0386180  55.1961030  12.1892010  57.6134420  55.6853040  12.0428080
  57.9768640  51.6717140  11.7147380  58.6996770  52.2126080  12.0328600
  58.2493160  51.3980560  10.8388920  71.7860290  56.5409610  15.9818960
  72.2819410  56.3080480  16.7667840  71.5876360  55.7021450  15.5656600
  57.6660830  50.9223330  21.6170000  58.3137020  50.3720710  21.1765160
  58.0862670  51.1766480  22.4385810  73.2147450  55.1770560  18.5156640
  73.1046730  55.0226600  19.4538910  73.9755040  54.6491500  18.2732050
  71.5613170  51.1164690  24.9739640  72.1985390  51.7298830  25.3398830
  71.7088060  51.1525350  24.0288870  74.1037720  53.0078480  11.7562780
  75.0287030  52.8759660  11.5481070  74.0813510  53.0871300  12.7099230
  74.1776210  53.7789140  14.3819490  73.3827710  53.7134260  14.9112400
  74.3819490  54.7139780  14.3704840  71.1194630  67.8180690  18.3757880
  71.7153700  67.4965260  17.6992300  71.3772780  67.3452510  19.1671150
  57.4192830  51.0779000  24.3595320  57.0707650  51.5342820  25.1253500
  57.0880530  50.1836130  24.4417750  62.7263230  65.8058190  24.1258230
  62.4854590  66.0732750  23.2388750  63.6665870  65.9763920  24.1809090
  64.9317650  52.2690880  27.8814740  64.8706540  52.8612710  28.6310150
  65.8718030  52.1616840  27.7365000  67.5692210  51.9260940  27.5207030
  68.1832620  52.2440230  26.8588110  68.1141770  51.4409530  28.1402890
  73.9867390  67.8252570  24.9268870  73.4925670  68.2221440  24.2096000
  73.3780680  67.2001780  25.3206150  58.0913470  50.6055200  27.6346090
  58.6396460  50.4243250  26.8712200  58.1568780  49.8149310  28.1702400
  68.3100250  50.4893080  23.8476320  67.4360090  50.8228190  23.6449250
  68.2011000  50.0166260  24.6728190  69.2172230  52.6963950  25.2318040
  68.8885590  51.8815710  24.8519770  70.1654530  52.6533760  25.1083730
  71.6706840  68.4675990  22.2055610  71.2109810  69.2191800  21.8313630
  71.0419300  67.7482460  22.1470410  58.4957460  64.5619230  24.5954330
  57.7691520  63.9424520  24.5280280  58.5566610  64.9559840  23.7252410
  62.1002560  66.7764230  21.3803740  62.6167580  66.1651590  20.8552000
  62.7499940  67.2793010  21.8714750  64.8398060  67.6672720  22.2072720
  65.1275870  67.4127020  21.3305730  65.3521280  67.1150080  22.7978290
  66.0575070  51.4062920  22.7869230  65.2746860  51.8808420  23.0665990
  65.7638000  50.5017750  22.6782410  70.6096140  52.1086020  20.8318320
  71.0504230  52.0531120  19.9839920  70.3403730  53.0244030  20.9028500
  72.4734710  51.7401260  18.8427140  72.4123110  50.7962480  18.6958160
  73.2526740  51.8481350  19.3880600  56.7787460  67.8793620  17.8051090
  56.6109500  67.2464300  18.5032980  55.9121970  68.0853020  17.4545280
  57.4015480  51.7110400  15.3082950  58.1594840  51.8239280  14.7346980
  56.9392650  52.5479600  15.2626380  63.9429290  53.8249670  18.2985260
  63.1303800  53.4506560  17.9581140  64.4470930  53.0694750  18.6006450
  68.4454270  50.4892120  19.5368330  69.0483640  51.0612330  20.0116850
  67.7047260  51.0531560  19.3142230  71.5888870  50.8913680  14.8108610
  71.7839500  51.7897130  15.0776040  70.8018740  50.6600760  15.3041560
  58.3850160  66.5726850  15.2501230  57.8597780  66.9534880  14.5463190
  58.3094740  67.1977620  15.9710940  59.7740630  52.2374450  13.8484920
  60.3033390  51.4504250  13.7192870  60.4068950  52.9165640  14.0820450
  61.9678470  51.9749590  16.9030310  61.3381210  51.2736900  17.0700440
  61.4283610  52.7353720  16.6863470  73.1415480  68.1314390  16.5715170
  73.3167670  67.4452130  15.9276090  72.4437050  68.6561440  16.1791840
  62.0934030  51.2533570  29.3382800  61.8118300  51.7567170  28.5743620
  62.4753730  50.4555320  28.9724930  60.9843130  68.5209230  14.1250480
  61.7161950  68.2368510  13.5774370  61.2436800  68.2822510  15.0149860
  60.1457920  64.6373960  14.1296810  59.5166800  65.1059060  14.6782640
  60.2605750  63.7923180  14.5643000  68.6949490  50.6687150  29.9163270
  68.5814940  50.9881760  30.8114790  69.5119230  51.0699660  29.6200550
  65.7325680  60.4658640   2.1607280  64.9567780  59.9859080   2.4505850
  66.3838610  59.7864290   1.9863440  59.7491510  60.7778450   3.0383040
  58.9176390  60.5227160   3.4379550  60.3572490  60.8489220   3.7740960
  59.7292770  64.8118540   3.2341060  60.0320810  63.9216280   3.0551280
  60.4736360  65.3688760   3.0063310  56.1216470  58.3385990   2.7065130
  56.6932580  57.5708190   2.7068770  56.1218010  58.6374750   1.7971740
  65.1734670  63.1415830   2.1677440  65.1042950  62.2005770   2.0066570
  65.9354530  63.2317240   2.7400010  57.3641340  53.7470350   4.4934060
  57.1844180  52.8496100   4.7736820  56.9621420  54.2942220   5.1681010
  66.2039840  55.9486210   2.3946370  66.5804660  55.0758090   2.2820040
  66.1059350  56.2844910   1.5036810  57.9828010  56.2430850   3.1016400
  58.6638120  56.5069220   3.7203800  57.6676060  55.4031720   3.4354410
  62.1752580  57.2898210   2.1888990  62.6830800  57.7879180   2.8294010
  62.7065820  56.5133410   2.0128350  74.2763510  55.4603400   5.8918340
  73.5715680  55.8485110   5.3733450  74.5421430  56.1553690   6.4939270
  60.4588680  51.9296770   6.4552410  60.4607120  52.4469160   5.6498310
  59.6292990  51.4526950   6.4322340  61.7091530  61.5691950   4.6325910
  61.3760910  62.1960870   5.2746980  61.8858210  62.0953830   3.8527580
  70.2225440  55.3837030   2.1002250  69.5181010  55.6721920   2.6805360
  70.5837600  56.1937140   1.7401810  60.1404010  53.6406730   4.4622860
  60.4820820  54.4848780   4.1676730  59.2019820  53.7890470   4.5788200
  60.9210630  63.5372750   6.4475090  61.5384630  64.2123830   6.1659540
  60.0603750  63.9460730   6.3562590  71.8388220  65.0012160   4.3629730
  71.1551740  65.6711270   4.3546400  72.3782510  65.1992810   3.5974590
  73.2912360  54.8291820   2.4911460  72.3437270  54.8630800   2.6226890
  73.6162350  55.6430770   2.8760820  69.3746960  66.8456290   3.0774910
  69.3874120  66.4418580   2.2097170  68.8222180  67.6203580   2.9736340
  68.7732400  61.7486130   4.4057520  69.1901190  61.5346240   3.5710980
  69.4972220  62.0058920   4.9766140  72.7194500  60.1473350   4.4973760
  71.8913130  60.2166440   4.0223890  73.3144980  60.7327660   4.0289590
  69.6836510  56.9342670   5.4428630  69.2707690  57.7596380   5.6968620
  68.9512460  56.3487710   5.2504990  62.2851000  63.4070130   2.4686510
  61.9879290  62.8015600   1.7894290  63.2350820  63.4447440   2.3575870
  60.5297920  56.4945780   4.0846340  61.0812510  56.6041120   3.3099590
  61.0441430  56.8683380   4.8001570  70.3736610  66.9802000   6.1309610
  69.8967170  67.7874190   5.9382220  69.6898400  66.3280330   6.2835820
  61.3769430  63.1451820   9.1194310  60.4797960  63.3691790   9.3667710
  61.4022300  63.2686760   8.1705710  60.2040650  60.0165140   7.6951680
  60.0648420  60.8887940   8.0639080  59.3222010  59.6737950   7.5499620
  62.0021000  65.9586840   9.9036830  61.9736430  66.3629790   9.0365260
  61.8385970  65.0297200   9.7408430  73.9535820  66.7413940  11.2001000
  74.4295540  67.2196830  11.8790080  74.5742980  66.6731430  10.4746500
  56.1559300  61.7862690   3.6122590  56.2339720  61.9211460   2.6678310
  56.7700980  61.0778580   3.8050710  73.3569070  63.9326790   8.3601010
  73.4832130  63.6938670   7.4418190  73.3990450  63.1011330   8.8323090
  67.2185810  67.6354790   6.9295820  67.7330480  67.5462800   7.7318250
  66.3754890  67.9814490   7.2223730  73.2093080  55.9859250   9.3250750
  72.5937350  56.4938920   8.7966210  72.8889500  55.0857580   9.2676690
  56.2118820  62.8276860   6.1517050  56.3749860  62.3582220   5.3336420
  56.6771270  62.3200420   6.8165890  65.2707400  54.8251140   6.7912940
  64.8086770  55.0334160   7.6032880  64.8685510  54.0110490   6.4883610
  70.2711910  56.0460090   7.9209600  69.4205500  55.7465840   8.2418670
  70.1113700  56.2902100   7.0093420  67.3661620  57.5461840  10.0208390
  67.6915030  56.7125590   9.6810620  68.1541950  58.0690360  10.1686720
  63.0213490  52.5029950   3.0467220  63.3185820  53.4092780   2.9659240
  63.5699050  52.0148730   2.4326790  63.2151020  57.9801770   9.5819140
  63.1194620  57.0396500   9.4319540  64.0583000  58.2016840   9.1867210
  58.3461560  54.3915440   7.7352920  57.9524950  55.2390650   7.9425700
  57.6579960  53.7541810   7.9261560  64.9206610  54.4750410  10.8049660
  64.2304930  54.2822610  11.4395750  65.6638910  54.7585050  11.3373960
  55.6478610  52.3143900   1.7683000  55.3591660  52.8846760   2.4807980
  56.3924370  51.8348350   2.1314230  67.1969580  58.3148850   3.6403580
  66.4650700  58.8235660   3.9893680  66.7993920  57.4978830   3.3392360
  67.6595490  53.7682530   3.0526520  67.6768230  54.2191180   3.8968370
  67.4111070  52.8688170   3.2659960  71.0866240  51.1814710   8.8912900
  71.4112010  50.4504370   9.4170880  71.1222750  50.8628350   7.9893890
  57.7857800  62.2028290   8.3112860  57.4012590  61.5621960   8.9095820
  58.0969990  62.9064410   8.8807590  63.9354940  59.0504830   3.7921480
  64.3025070  58.5763400   4.5382820  63.7460000  59.9246400   4.1329820
  61.7254310  58.0913470   6.1105690  61.4211380  58.9705450   6.3356050
  62.6800770  58.1513260   6.1463130  71.0124080  61.2939820   2.4998930
  71.7323200  61.7895110   2.1095040  70.8105900  60.6157710   1.8552800
  66.3942880  61.3648880   8.3867930  66.3280190  60.4444550   8.1325520
  65.7648020  61.4624320   9.1012570  57.7818040  58.9316210   7.2577050
  57.4232980  59.5970060   7.8450390  57.4872600  58.0999760   7.6289670
  60.9831160  59.3900450  10.1416600  60.6831300  59.5357630   9.2444420
  61.7542400  58.8305740  10.0489990  66.3259610  64.1869450   8.1371730
  66.3404150  63.2550410   7.9190640  65.6184710  64.2729210   8.7761500
  72.5370820  60.8276790   7.4840310  71.8119010  61.4205570   7.2869700
  73.0646280  60.8200330   6.6853680  65.7593510  65.8287020   5.2312230
  66.4035730  66.0346400   5.9085650  66.1222950  65.0675420   4.7783080
  67.0325590  63.8319370   3.9489680  67.6747820  63.1312530   4.0621850
  67.5574940  64.6117810   3.7686570  68.8063210  64.6314270   7.1525740
  69.1419450  65.2180960   7.8303660  67.8863550  64.5006980   7.3823530
  56.3566610  52.4209450   7.9349150  55.6425130  52.6206370   8.5401760
  56.7761650  51.6449020   8.3063950  56.6439200  66.4089710   8.9215680
  56.7530320  65.4684450   8.7811070  55.9919760  66.6744460   8.2729410
  64.6351790  64.6805600  10.3213800  64.3148660  63.9614840  10.8659490
  63.9610150  65.3560670  10.3949860  67.8505390  54.9131760   5.6850600
  68.2186210  54.0926970   6.0130170  66.9903590  54.9733650   6.1006250
  64.8107380  57.5671350   5.9088570  65.3092630  58.0417170   6.5740420
  64.9530330  56.6434870   6.1158600  72.0174240  53.7839310   6.7516960
  71.5147840  54.5244710   7.0910770  72.8330900  54.1723310   6.4353750
  72.3121830  66.1981340   1.8732580  72.4369250  67.0212510   2.3456390
  73.1787390  65.9872070   1.5256730  58.7897640  67.4758620  10.7335290
  59.5910370  67.7970670  11.1470690  58.2749460  67.1154200  11.4555200
  67.6262270  63.5838490  10.6810700  67.0200430  63.6070090   9.9406450
  67.3216380  62.8521530  11.2177950  69.0562640  67.3118780   9.2920110
  70.0084390  67.2276800   9.2420350  68.9090860  67.9760490   9.9653900
  56.5095450  59.9632080   9.6771340  57.0134470  59.3839360  10.2487570
  55.7702870  60.2472310  10.2147710  63.5633390  61.3703070   9.2106860
  62.7979060  61.9388070   9.1261530  63.7449350  61.0779280   8.3175090
  70.7056740  63.1008400   9.7681880  71.4466210  63.4384160   9.2649340
  69.9429420  63.2700460   9.2151650  58.5418530  58.1061670  10.5721410
  58.5823870  57.8075540  11.4806640  59.3964030  58.5069280  10.4128930
  60.4824340  56.6853770   8.5395900  59.9520800  56.1944720   7.9119240
  61.1512410  57.1137970   8.0053830  69.3802400  61.1523230   8.3037090
  69.7943420  61.3068310   9.1527510  68.4453400  61.2778450   8.4662870
  69.8524570  58.4919390  10.3076240  70.4345340  57.7371710  10.2196720
  70.0286340  59.0226830   9.5307720  60.9696640  53.6516140   8.6193190
  60.8753510  53.0336890   7.8944060  60.3894030  54.3782430   8.3923100
  63.7358080  52.2089380   5.6520580  63.2875380  52.2313640   4.8066130
  63.1023280  51.8108400   6.2490880  64.1417630  61.1043710   6.2733020
  64.5605740  61.9476440   6.1009260  63.2226260  61.2415750   6.0439800
  66.4781530  58.8359890   7.6570860  66.5977740  58.2401030   8.3965700
  67.3375530  58.8729580   7.2372160  68.8169430  59.3897080   6.2333370
  68.2904650  59.9139700   5.6298510  69.1600770  60.0224470   6.8643100
  61.9925050  67.4096720   7.3890750  61.4546140  68.1342780   7.0699450
  62.2459010  66.9327060   6.5988090  63.2450300  55.3781240   8.9146680
  63.8349990  55.0697090   9.6024500  62.4270540  54.9060990   9.0706580
  68.0643730  54.9947050   9.1479700  67.3759250  54.3328590   9.0829690
  68.7849750  54.5485320   9.5928160  64.8487260  68.6447930   7.6477400
  64.7745960  69.5483070   7.9549770  63.9466100  68.3259830   7.6199470
  56.7404760  66.8393110   3.6892650  56.3035750  67.0193910   4.5216800
  57.3082440  67.5967730   3.5474370  72.3766940  66.3410110   7.9769960
  71.7768930  66.4002670   7.2333880  72.5060840  65.4015090   8.1066810
  71.0618580  63.0662090   6.0746120  70.2478420  63.4959250   6.3371910
  71.4692780  63.6780500   5.4615170  57.6105120  59.7365910   4.5884870
  57.9778160  59.6493310   5.4680890  57.0415940  58.9732460   4.4891730
  72.4108980  58.2050290   7.6015340  72.1795070  57.9763040   6.7013290
  72.6713530  59.1249840   7.5560230  57.1621120  56.6475000   8.4943290
  56.2677170  56.6141760   8.8337000  57.7018670  56.8461790   9.2594540
  70.8497050  53.4306720  10.3795040  71.7267230  53.4390120  10.7629040
  70.8617890  52.6937560   9.7687390  72.4750040  57.3676130   4.7902610
  71.5252750  57.3339670   4.9047600  72.6563050  58.2776240   4.5552380
  57.6660830  50.9223330   2.8426510  58.3137020  50.3720710   2.4021670
  58.0862670  51.1766480   3.6642320  71.5613170  51.1164690   6.1996150
  72.1985390  51.7298830   6.5655340  71.7088060  51.1525350   5.2545380
  57.4192830  51.0779000   5.5851830  57.0707650  51.5342820   6.3510010
  57.0880530  50.1836130   5.6674260  59.0257200  64.2498600   9.7505020
  58.9826830  63.8791510  10.6319480  59.1568210  65.1876170   9.8906840
  62.7263230  65.8058190   5.3514740  62.4854590  66.0732750   4.4645260
  63.6665870  65.9763920   5.4065600  64.9317650  52.2690880   9.1071250
  64.8706540  52.8612710   9.8566660  65.8718030  52.1616840   8.9621510
  67.5692210  51.9260940   8.7463540  68.1832620  52.2440230   8.0844620
  68.1141770  51.4409530   9.3659400  73.9867390  67.8252570   6.1525380
  73.4925670  68.2221440   5.4352510  73.3780680  67.2001780   6.5462660
  58.0913470  50.6055200   8.8602600  58.6396460  50.4243250   8.0968710
  58.1568780  49.8149310   9.3958910  58.8645230  67.1960850   6.8702800
  58.2705550  67.0645550   7.6092840  58.8569070  66.3598990   6.4044900
  68.3100250  50.4893080   5.0732830  67.4360090  50.8228190   4.8705760
  68.2011000  50.0166260   5.8984700  69.2172230  52.6963950   6.4574550
  68.8885590  51.8815710   6.0776280  70.1654530  52.6533760   6.3340240
  71.6706840  68.4675990   3.4312120  71.2109810  69.2191800   3.0570140
  71.0419300  67.7482460   3.3726920  58.4957460  64.5619230   5.8210840
  57.7691520  63.9424520   5.7536790  58.5566610  64.9559840   4.9508920
  62.1002560  66.7764230   2.6060250  62.6167580  66.1651590   2.0808510
  62.7499940  67.2793010   3.0971260  64.8398060  67.6672720   3.4329230
  65.1275870  67.4127020   2.5562240  65.3521280  67.1150080   4.0234800
  66.0575070  51.4062920   4.0125740  65.2746860  51.8808420   4.2922500
  65.7638000  50.5017750   3.9038920  64.9070420  68.5888820  10.7997430
  65.8337730  68.3533090  10.8433390  64.8920850  69.4160820  10.3183460
  62.0934030  51.2533570  10.5639310  61.8118300  51.7567170   9.8000130
  62.4753730  50.4555320  10.1981440  68.6949490  50.6687150  11.1419780
  68.5814940  50.9881760  12.0371300  69.5119230  51.0699660  10.8457060
  71.4747980  67.8158680  10.6238470  72.2673300  67.3207910  10.4164430
  71.7681130  68.4948820  11.2314080  67.6007640  39.9136130  56.6028480
  67.5201690  38.9990740  56.3320190  67.1872060  40.4103200  55.8968190
  69.7533110  46.0975340  57.2636880  69.2914640  45.3262580  57.5924050
  70.5658660  46.1241410  57.7689330  58.1583460  36.9636850  53.1455900
  57.2700160  37.3052820  53.0435780  58.4424650  36.7637170  52.2536730
  65.9796420  48.3833350  56.8840870  65.3607860  48.8390850  56.3135310
  66.8348200  48.5384810  56.4830570  60.3344850  35.5468350  54.1794280
  60.4411600  36.4472080  54.4863040  59.4237210  35.4986320  53.8888930
  69.9863960  34.6693160  55.6505180  70.8073580  34.1789730  55.6930660
  70.0198040  35.2590820  56.4037020  66.8459770  43.2672590  54.2772780
  66.2277040  43.7322040  53.7135500  67.3583020  43.9600070  54.6942290
  56.2142970  43.9529120  51.6512410  55.8370950  44.4416220  50.9197310
  56.4716040  44.6254400  52.2818940  63.8231900  32.3545510  57.1097920
  64.1306880  31.7992400  56.3933420  62.8932600  32.4889970  56.9270910
  70.6692380  44.7929020  54.4895550  70.5588710  43.8503350  54.6144970
  70.6660630  45.1544660  55.3758310  66.2112660  40.4194340  53.8458040
  65.2841940  40.3531720  54.0746510  66.3637480  41.3574470  53.7313280
  66.1981740  36.6911340  50.8425200  65.2585410  36.8525300  50.9277660
  66.5165000  37.4097020  50.2961190  70.2409950  41.9814640  54.3493290
  69.6222370  41.6434190  53.7019590  70.2234400  41.3374400  55.0572480
  61.8169300  40.9459080  56.6277770  61.4126300  40.2336330  56.1323670
  61.9032420  40.6012320  57.5165810  68.4174650  41.2201450  51.3566040
  68.8567930  40.3823880  51.2103860  69.1303070  41.8530850  51.4430180
  66.5270030  46.1597520  55.3247280  66.9665940  46.9021850  54.9102670
  66.4656920  46.4024090  56.2486240  71.9991790  32.4744260  49.6707080
  71.6864450  32.5671090  50.5706150  72.7604260  33.0525290  49.6204510
  58.5173930  39.8404060  54.1284420  58.3971530  40.5666150  53.5165690
  58.2074820  39.0706970  53.6512330  57.4006930  44.7119390  56.3459240
  56.9935010  44.8533980  55.4912840  58.2919940  44.4279550  56.1430450
  69.1940210  49.1466640  52.6810290  69.0341350  48.8569580  53.5792120
  69.0286920  48.3706770  52.1455520  61.6728590  48.9265170  54.4581910
  61.4971070  48.0100710  54.2449710  60.8184330  49.2852460  54.6979710
  68.8966340  46.6554200  51.2408290  68.2031500  46.6531490  50.5810570
  69.6389200  46.2313520  50.8102460  68.4616270  48.2816910  55.3156780
  68.9173220  47.5006290  55.6295400  68.8008790  48.9923730  55.8597960
  60.9837590  33.1839130  57.5108090  60.5405740  33.9648670  57.1792610
  61.5422580  33.5069020  58.2179030  64.0996410  32.8049830  52.3913920
  63.4750590  32.8009700  53.1167230  64.0126530  31.9380790  51.9949890
  60.7751810  38.3072700  55.2389340  60.5492730  38.0909870  56.1435960
  59.9944340  38.7401160  54.8935310  68.0049570  38.3136070  53.8379990
  67.4058460  39.0371870  53.6543610  68.5529180  38.2512850  53.0556440
  66.6114440  36.9499610  55.8683270  67.0044010  37.2671810  55.0551960
  66.9731290  36.0711490  55.9827790  55.8348840  37.4820530  49.3016190
  55.7523510  38.4251290  49.4431180  55.4831900  37.3395440  48.4228540
  63.6346970  36.2159560  58.3686540  63.6383030  35.7749510  57.5191080
  64.5298090  36.5376890  58.4758360  59.4849350  36.0986050  57.3280750
  59.1449400  36.5761280  58.0847800  58.7226670  35.6451170  56.9681850
  63.6967120  37.2171640  51.3593300  63.8179940  37.1758120  52.3079120
  63.3115630  38.0795790  51.2040030  62.7088620  39.5272780  50.7576600
  62.1405520  39.0791030  50.1312510  63.4177620  39.8865560  50.2241750
  56.7995430  35.0205030  56.2445420  56.5142350  34.6560700  57.0824040
  56.7374290  34.2885490  55.6308560  60.2536100  43.5230970  53.0303010
  59.4798360  42.9828590  52.8701730  60.9830730  43.0037580  52.6920770
  66.4734020  33.9134290  52.9658790  65.6598630  33.4147460  52.8904100
  66.2795970  34.7532540  52.5495140  69.1882410  38.2853940  51.2620950
  70.0762030  38.5971170  51.0872290  69.1587500  37.4126190  50.8701530
  60.2973500  43.1911350  56.6681820  60.8152170  42.3879610  56.6138710
  59.8457520  43.1290490  57.5098650  65.1843000  44.4577630  51.9409120
  65.5258700  45.2019860  51.4452440  64.3555710  44.7708750  52.3033950
  71.4596680  39.5965780  50.7300810  71.3760400  40.0280000  49.8797250
  72.1790870  40.0564130  51.1627630  72.4883930  46.4508040  53.4582940
  71.8460090  45.7963660  53.7326660  72.1014590  46.8563130  52.6823610
  68.0670410  43.7793470  57.3054630  68.4194230  43.1821600  56.6456000
  67.1832740  43.4537700  57.4762880  64.1533690  44.5391160  54.7125040
  64.8404820  45.0860370  55.0932630  63.3666110  45.0831890  54.7474650
  56.2926090  40.1563980  50.2042120  57.1620940  40.4388780  50.4878040
  55.8016410  40.9699850  50.0890930  63.4560900  41.5437190  54.3250400
  63.9123680  42.3542440  54.5510590  63.1049110  41.2260330  55.1568890
  59.3572680  31.8874840  54.7972920  59.2287310  31.8792740  55.7457840
  58.5334700  32.2257930  54.4463930  70.8781310  45.3424500  49.9959290
  70.6518890  44.6254940  50.5883930  70.4877510  45.0936940  49.1581040
  56.6597340  49.3691360  50.7703750  57.0194980  49.9680700  50.1161020
  56.5189680  49.9151250  51.5438780  70.4597560  43.2596440  51.6573450
  70.1719260  43.7209130  52.4451330  71.2549730  42.7994210  51.9257670
  62.6765960  46.7522560  51.5877420  62.6676060  47.4852250  50.9721930
  61.7564320  46.5054140  51.6804380  58.2772600  41.9737450  52.3324180
  57.6700550  42.7136350  52.3419480  58.7521950  42.0636810  51.5062380
  71.2167420  35.0945210  52.8168630  70.5880580  35.1990880  52.1026860
  70.7219340  35.3141990  53.6062510  65.6625560  46.8150800  50.2502610
  65.7637540  46.6114790  49.3204590  64.7627300  46.5609080  50.4550390
  63.1851450  37.3731160  54.2326510  62.4767600  37.8417500  54.6740120
  63.4695930  36.7153170  54.8671700  67.2166880  34.0981820  55.6722300
  67.0934660  34.1167950  54.7231810  68.1651440  34.1460760  55.7920700
  64.3043670  49.3337120  54.9450280  64.5585170  49.2958510  54.0229650
  63.3556150  49.2070450  54.9378530  61.3886470  35.6816240  51.6077220
  62.2377000  36.1186390  51.5417410  61.0217740  35.9936500  52.4349280
  70.3096250  40.2529000  56.5208790  69.3686390  40.2679230  56.6956480
  70.6240320  39.4664960  56.9669090  60.2877890  41.9348600  50.0812750
  61.0541160  41.8229960  50.6438180  60.3652580  41.2386570  49.4289520
  58.9824650  39.3673670  50.7645640  59.0628240  38.4201180  50.8763040
  59.8744400  39.6980550  50.8706300  59.7839360  49.5169060  57.8680180
  60.5201840  48.9684520  58.1388750  60.1680280  50.3825070  57.7286170
  56.6684840  45.5842630  53.7421690  55.7424620  45.8263770  53.7327100
  57.1341270  46.4116890  53.6206440  62.8941670  48.6899370  49.6905750
  63.6870280  48.9788200  49.2387540  62.3746020  48.2591540  49.0118230
  71.9471840  47.9169500  51.1142490  71.6613350  47.5034640  50.2996670
  71.7491390  48.8457210  50.9943010  63.4119070  43.9102780  49.5548100
  63.3069710  43.2955130  50.2809480  63.2443290  43.3868670  48.7711110
  66.6521800  42.9722810  50.1590090  66.1031900  43.4192110  50.8032830
  67.2741060  42.4672060  50.6827760  62.3196920  41.9313730  52.0555390
  62.7413340  41.7653600  52.8986780  62.4447760  41.1213960  51.5610530
  64.8324560  40.9551340  49.3032490  65.3530220  40.2400360  48.9373640
  65.4792960  41.5937210  49.6033000  61.2155820  38.0046960  49.0013550
  61.0144880  37.1414320  49.3626890  61.0447870  37.9180320  48.0635150
  68.6944130  32.8155190  51.5300430  68.9746420  31.9723090  51.8859850
  67.9209860  33.0478300  52.0439180  60.0138620  35.1047580  48.9891430
  60.3164520  35.1115010  48.0810580  60.7533210  34.7545440  49.4859090
  63.2323550  34.0482200  49.9747630  62.8845550  33.3706190  49.3950080
  63.4336320  33.5871710  50.7891020  65.3972590  49.0362950  51.5934230
  66.2923380  49.3747920  51.6152990  65.4290220  48.3142360  50.9658510
  59.0368750  44.4090000  49.8221230  59.4743620  44.9519670  50.4778810
  59.5216480  43.5836950  49.8317570  56.2514550  47.1979030  57.2741490
  56.5817560  46.3300090  57.0420130  56.6805550  47.4037550  58.1046450
  60.8476470  45.5288040  54.9343460  60.5472010  45.4053010  55.8347370
  60.7413960  44.6696630  54.5259190  73.6168390  45.3084440  49.6370140
  72.7861350  45.3761090  50.1077370  73.7940220  46.1988560  49.3337000
  73.0724850  42.0531920  52.1404340  73.8343760  42.6228570  52.2464030
  73.0879220  41.4859120  52.9112650  56.5729190  40.5769850  56.3712000
  55.9178030  40.3081490  55.7271700  57.4107140  40.4674330  55.9213980
  74.0784820  42.9082020  56.9846270  74.4493650  42.1249340  56.5782240
  74.7186750  43.5971120  56.8063570  73.1244020  42.3466290  49.2976860
  73.3992860  43.2545170  49.1696080  72.9354760  42.2828820  50.2338850
  69.5219630  35.3711140  50.5930490  69.9404510  35.1842120  49.7527150
  69.2155690  34.5190190  50.9033420  73.0209360  40.2835280  54.2906290
  72.6452960  39.5163210  53.8587580  72.2912480  40.6657980  54.7781220
  55.7867270  37.7868780  52.3137330  54.8831350  38.0498980  52.1388990
  56.2707890  38.0579950  51.5337290  72.2960320  38.5092770  57.5913530
  72.8197800  38.0155420  56.9603700  72.8819740  38.6443130  58.3361100
  58.3294480  36.8434320  50.2231710  59.0386180  36.4217540  49.7378990
  57.6134420  36.9109550  49.5915060  57.9768640  32.8973650  49.2634360
  58.6996770  33.4382590  49.5815580  58.2493160  32.6237070  48.3875900
  71.7860290  37.7666120  53.5305940  72.2819410  37.5336990  54.3154820
  71.5876360  36.9277960  53.1143580  73.2147450  36.4027070  56.0643620
  73.1046730  36.2483110  57.0025890  73.9755040  35.8748010  55.8219030
  74.1037720  34.2334990  49.3049760  75.0287030  34.1016170  49.0968050
  74.0813510  34.3127810  50.2586210  74.1776210  35.0045650  51.9306470
  73.3827710  34.9390770  52.4599380  74.3819490  35.9396290  51.9191820
  71.1194630  49.0437200  55.9244860  71.7153700  48.7221770  55.2479280
  71.3772780  48.5709020  56.7158130  70.6096140  33.3342530  58.3805300
  71.0504230  33.2787630  57.5326900  70.3403730  34.2500540  58.4515480
  72.4734710  32.9657770  56.3914120  72.4123110  32.0218990  56.2445140
  73.2526740  33.0737860  56.9367580  56.7787460  49.1050130  55.3538070
  56.6109500  48.4720810  56.0519960  55.9121970  49.3109530  55.0032260
  57.4015480  32.9366910  52.8569930  58.1594840  33.0495790  52.2833960
  56.9392650  33.7736110  52.8113360  63.9429290  35.0506180  55.8472240
  63.1303800  34.6763070  55.5068120  64.4470930  34.2951260  56.1493430
  68.4454270  31.7148630  57.0855310  69.0483640  32.2868840  57.5603830
  67.7047260  32.2788070  56.8629210  71.5888870  32.1170190  52.3595590
  71.7839500  33.0153640  52.6263020  70.8018740  31.8857270  52.8528540
  58.3850160  47.7983360  52.7988210  57.8597780  48.1791390  52.0950170
  58.3094740  48.4234130  53.5197920  59.7740630  33.4630960  51.3971900
  60.3033390  32.6760760  51.2679850  60.4068950  34.1422150  51.6307430
  61.9678470  33.2006100  54.4517290  61.3381210  32.4993410  54.6187420
  61.4283610  33.9610230  54.2350450  73.1415480  49.3570900  54.1202150
  73.3167670  48.6708640  53.4763070  72.4437050  49.8817950  53.7278820
  60.9843130  49.7465740  51.6737460  61.7161950  49.4625020  51.1261350
  61.2436800  49.5079020  52.5636840  60.1457920  45.8630470  51.6783790
  59.5166800  46.3315570  52.2269620  60.2605750  45.0179690  52.1129980
  67.6007640  39.9136130  37.8284990  67.5201690  38.9990740  37.5576700
  67.1872060  40.4103200  37.1224700  65.7325680  41.6915150  39.7094260
  64.9567780  41.2115590  39.9992830  66.3838610  41.0120800  39.5350420
  59.7491510  42.0034960  40.5870020  58.9176390  41.7483670  40.9866530
  60.3572490  42.0745730  41.3227940  69.7533110  46.0975340  38.4893390
  69.2914640  45.3262580  38.8180560  70.5658660  46.1241410  38.9945840
  59.7292770  46.0375050  40.7828040  60.0320810  45.1472790  40.6038260
  60.4736360  46.5945270  40.5550290  58.1583460  36.9636850  34.3712410
  57.2700160  37.3052820  34.2692290  58.4424650  36.7637170  33.4793240
  56.1216470  39.5642500  40.2552110  56.6932580  38.7964700  40.2555750
  56.1218010  39.8631260  39.3458720  65.9796420  48.3833350  38.1097380
  65.3607860  48.8390850  37.5391820  66.8348200  48.5384810  37.7087080
  65.1734670  44.3672340  39.7164420  65.1042950  43.4262280  39.5553550
  65.9354530  44.4573750  40.2886990  57.3641340  34.9726860  42.0421040
  57.1844180  34.0752610  42.3223800  56.9621420  35.5198730  42.7167990
  66.2039840  37.1742720  39.9433350  66.5804660  36.3014600  39.8307020
  66.1059350  37.5101420  39.0523790  60.3344850  35.5468350  35.4050790
  60.4411600  36.4472080  35.7119550  59.4237210  35.4986320  35.1145440
  69.9863960  34.6693160  36.8761690  70.8073580  34.1789730  36.9187170
  70.0198040  35.2590820  37.6293530  57.9828010  37.4687360  40.6503380
  58.6638120  37.7325730  41.2690780  57.6676060  36.6288230  40.9841390
  62.1752580  38.5154720  39.7375970  62.6830800  39.0135690  40.3780990
  62.7065820  37.7389920  39.5615330  74.2763510  36.6859910  43.4405320
  73.5715680  37.0741620  42.9220430  74.5421430  37.3810200  44.0426250
  60.4588680  33.1553280  44.0039390  60.4607120  33.6725670  43.1985290
  59.6292990  32.6783460  43.9809320  66.8459770  43.2672590  35.5029290
  66.2277040  43.7322040  34.9392010  67.3583020  43.9600070  35.9198800
  61.7091530  42.7948460  42.1812890  61.3760910  43.4217380  42.8233960
  61.8858210  43.3210340  41.4014560  70.2225440  36.6093540  39.6489230
  69.5181010  36.8978430  40.2292340  70.5837600  37.4193650  39.2888790
  60.1404010  34.8663240  42.0109840  60.4820820  35.7105290  41.7163710
  59.2019820  35.0146980  42.1275180  60.9210630  44.7629260  43.9962070
  61.5384630  45.4380340  43.7146520  60.0603750  45.1717240  43.9049570
  56.2142970  43.9529120  32.8768920  55.8370950  44.4416220  32.1453820
  56.4716040  44.6254400  33.5075450  71.8388220  46.2268670  41.9116710
  71.1551740  46.8967780  41.9033380  72.3782510  46.4249320  41.1461570
  73.2912360  36.0548330  40.0398440  72.3437270  36.0887310  40.1713870
  73.6162350  36.8687280  40.4247800  63.8231900  32.3545510  38.3354430
  64.1306880  31.7992400  37.6189930  62.8932600  32.4889970  38.1527420
  69.3746960  48.0712800  40.6261890  69.3874120  47.6675090  39.7584150
  68.8222180  48.8460090  40.5223320  70.6692380  44.7929020  35.7152060
  70.5588710  43.8503350  35.8401480  70.6660630  45.1544660  36.6014820
  68.7732400  42.9742640  41.9544500  69.1901190  42.7602750  41.1197960
  69.4972220  43.2315430  42.5253120  66.2112660  40.4194340  35.0714550
  65.2841940  40.3531720  35.3003020  66.3637480  41.3574470  34.9569790
  66.1981740  36.6911340  32.0681710  65.2585410  36.8525300  32.1534170
  66.5165000  37.4097020  31.5217700  72.7194500  41.3729860  42.0460740
  71.8913130  41.4422950  41.5710870  73.3144980  41.9584170  41.5776570
  70.2409950  41.9814640  35.5749800  69.6222370  41.6434190  34.9276100
  70.2234400  41.3374400  36.2828990  69.6836510  38.1599180  42.9915610
  69.2707690  38.9852890  43.2455600  68.9512460  37.5744220  42.7991970
  61.8169300  40.9459080  37.8534280  61.4126300  40.2336330  37.3580180
  61.9032420  40.6012320  38.7422320  62.2851000  44.6326640  40.0173490
  61.9879290  44.0272110  39.3381270  63.2350820  44.6703950  39.9062850
  60.5297920  37.7202290  41.6333320  61.0812510  37.8297630  40.8586570
  61.0441430  38.0939890  42.3488550  70.3736610  48.2058510  43.6796590
  69.8967170  49.0130700  43.4869200  69.6898400  47.5536840  43.8322800
  61.3769430  44.3708330  46.6681290  60.4797960  44.5948300  46.9154690
  61.4022300  44.4943270  45.7192690  68.4174650  41.2201450  32.5822550
  68.8567930  40.3823880  32.4360370  69.1303070  41.8530850  32.6686690
  60.2040650  41.2421650  45.2438660  60.0648420  42.1144450  45.6126060
  59.3222010  40.8994460  45.0986600  66.5270030  46.1597520  36.5503790
  66.9665940  46.9021850  36.1359180  66.4656920  46.4024090  37.4742750
  62.0021000  47.1843350  47.4523810  61.9736430  47.5886300  46.5852240
  61.8385970  46.2553710  47.2895410  71.9991790  32.4744260  30.8963590
  71.6864450  32.5671090  31.7962660  72.7604260  33.0525290  30.8461020
  58.5173930  39.8404060  35.3540930  58.3971530  40.5666150  34.7422200
  58.2074820  39.0706970  34.8768840  73.9535820  47.9670450  48.7487980
  74.4295540  48.4453340  49.4277060  74.5742980  47.8987940  48.0233480
  56.1559300  43.0119200  41.1609570  56.2339720  43.1467970  40.2165290
  56.7700980  42.3035090  41.3537690  57.4006930  44.7119390  37.5715750
  56.9935010  44.8533980  36.7169350  58.2919940  44.4279550  37.3686960
  73.3569070  45.1583300  45.9087990  73.4832130  44.9195180  44.9905170
  73.3990450  44.3267840  46.3810070  67.2185810  48.8611300  44.4782800
  67.7330480  48.7719310  45.2805230  66.3754890  49.2071000  44.7710710
  69.1940210  49.1466640  33.9066800  69.0341350  48.8569580  34.8048630
  69.0286920  48.3706770  33.3712030  61.6728590  48.9265170  35.6838420
  61.4971070  48.0100710  35.4706220  60.8184330  49.2852460  35.9236220
  68.8966340  46.6554200  32.4664800  68.2031500  46.6531490  31.8067080
  69.6389200  46.2313520  32.0358970  68.4616270  48.2816910  36.5413290
  68.9173220  47.5006290  36.8551910  68.8008790  48.9923730  37.0854470
  73.2093080  37.2115760  46.8737730  72.5937350  37.7195430  46.3453190
  72.8889500  36.3114090  46.8163670  56.2118820  44.0533370  43.7004030
  56.3749860  43.5838730  42.8823400  56.6771270  43.5456930  44.3652870
  60.9837590  33.1839130  38.7364600  60.5405740  33.9648670  38.4049120
  61.5422580  33.5069020  39.4435540  65.2707400  36.0507650  44.3399920
  64.8086770  36.2590670  45.1519860  64.8685510  35.2367000  44.0370590
  70.2711910  37.2716600  45.4696580  69.4205500  36.9722350  45.7905650
  70.1113700  37.5158610  44.5580400  67.3661620  38.7718350  47.5695370
  67.6915030  37.9382100  47.2297600  68.1541950  39.2946870  47.7173700
  64.0996410  32.8049830  33.6170430  63.4750590  32.8009700  34.3423740
  64.0126530  31.9380790  33.2206400  63.0213490  33.7286460  40.5954200
  63.3185820  34.6349290  40.5146220  63.5699050  33.2405240  39.9813770
  60.7751810  38.3072700  36.4645850  60.5492730  38.0909870  37.3692470
  59.9944340  38.7401160  36.1191820  68.0049570  38.3136070  35.0636500
  67.4058460  39.0371870  34.8800120  68.5529180  38.2512850  34.2812950
  63.2151020  39.2058280  47.1306120  63.1194620  38.2653010  46.9806520
  64.0583000  39.4273350  46.7354190  66.6114440  36.9499610  37.0939780
  67.0044010  37.2671810  36.2808470  66.9731290  36.0711490  37.2084300
  58.3461560  35.6171950  45.2839900  57.9524950  36.4647160  45.4912680
  57.6579960  34.9798320  45.4748540  64.9206610  35.7006920  48.3536640
  64.2304930  35.5079120  48.9882730  65.6638910  35.9841560  48.8860940
  55.6478610  33.5400410  39.3169980  55.3591660  34.1103270  40.0294960
  56.3924370  33.0604860  39.6801210  55.8348840  37.4820530  30.5272700
  55.7523510  38.4251290  30.6687690  55.4831900  37.3395440  29.6485050
  67.1969580  39.5405360  41.1890560  66.4650700  40.0492170  41.5380660
  66.7993920  38.7235340  40.8879340  63.6346970  36.2159560  39.5943050
  63.6383030  35.7749510  38.7447590  64.5298090  36.5376890  39.7014870
  59.4849350  36.0986050  38.5537260  59.1449400  36.5761280  39.3104310
  58.7226670  35.6451170  38.1938360  63.6967120  37.2171640  32.5849810
  63.8179940  37.1758120  33.5335630  63.3115630  38.0795790  32.4296540
  67.6595490  34.9939040  40.6013500  67.6768230  35.4447690  41.4455350
  67.4111070  34.0944680  40.8146940  62.7088620  39.5272780  31.9833110
  62.1405520  39.0791030  31.3569020  63.4177620  39.8865560  31.4498260
  71.0866240  32.4071220  46.4399880  71.4112010  31.6760880  46.9657860
  71.1222750  32.0884860  45.5380870  57.7857800  43.4284800  45.8599840
  57.4012590  42.7878470  46.4582800  58.0969990  44.1320920  46.4294570
  63.9354940  40.2761340  41.3408460  64.3025070  39.8019910  42.0869800
  63.7460000  41.1502910  41.6816800  56.7995430  35.0205030  37.4701930
  56.5142350  34.6560700  38.3080550  56.7374290  34.2885490  36.8565070
  61.7254310  39.3169980  43.6592670  61.4211380  40.1961960  43.8843030
  62.6800770  39.3769770  43.6950110  60.2536100  43.5230970  34.2559520
  59.4798360  42.9828590  34.0958240  60.9830730  43.0037580  33.9177280
  71.0124080  42.5196330  40.0485910  71.7323200  43.0151620  39.6582020
  70.8105900  41.8414220  39.4039780  66.4734020  33.9134290  34.1915300
  65.6598630  33.4147460  34.1160610  66.2795970  34.7532540  33.7751650
  66.3942880  42.5905390  45.9354910  66.3280190  41.6701060  45.6812500
  65.7648020  42.6880830  46.6499550  69.1882410  38.2853940  32.4877460
  70.0762030  38.5971170  32.3128800  69.1587500  37.4126190  32.0958040
  60.2973500  43.1911350  37.8938330  60.8152170  42.3879610  37.8395220
  59.8457520  43.1290490  38.7355160  65.1843000  44.4577630  33.1665630
  65.5258700  45.2019860  32.6708950  64.3555710  44.7708750  33.5290460
  57.7818040  40.1572720  44.8064030  57.4232980  40.8226570  45.3937370
  57.4872600  39.3256270  45.1776650  60.9831160  40.6156960  47.6903580
  60.6831300  40.7614140  46.7931400  61.7542400  40.0562250  47.5976970
  66.3259610  45.4125960  45.6858710  66.3404150  44.4806920  45.4677620
  65.6184710  45.4985720  46.3248480  71.4596680  39.5965780  31.9557320
  71.3760400  40.0280000  31.1053760  72.1790870  40.0564130  32.3884140
  72.5370820  42.0533300  45.0327290  71.8119010  42.6462080  44.8356680
  73.0646280  42.0456840  44.2340660  72.4883930  46.4508040  34.6839450
  71.8460090  45.7963660  34.9583170  72.1014590  46.8563130  33.9080120
  68.0670410  43.7793470  38.5311140  68.4194230  43.1821600  37.8712510
  67.1832740  43.4537700  38.7019390  64.1533690  44.5391160  35.9381550
  64.8404820  45.0860370  36.3189140  63.3666110  45.0831890  35.9731160
  56.2926090  40.1563980  31.4298630  57.1620940  40.4388780  31.7134550
  55.8016410  40.9699850  31.3147440  63.4560900  41.5437190  35.5506910
  63.9123680  42.3542440  35.7767100  63.1049110  41.2260330  36.3825400
  65.7593510  47.0543530  42.7799210  66.4035730  47.2602910  43.4572630
  66.1222950  46.2931930  42.3270060  59.3572680  31.8874840  36.0229430
  59.2287310  31.8792740  36.9714350  58.5334700  32.2257930  35.6720440
  67.0325590  45.0575880  41.4976660  67.6747820  44.3569040  41.6108830
  67.5574940  45.8374320  41.3173550  70.8781310  45.3424500  31.2215800
  70.6518890  44.6254940  31.8140440  70.4877510  45.0936940  30.3837550
  68.8063210  45.8570780  44.7012720  69.1419450  46.4437470  45.3790640
  67.8863550  45.7263490  44.9310510  56.6597340  49.3691360  31.9960260
  57.0194980  49.9680700  31.3417530  56.5189680  49.9151250  32.7695290
  56.3566610  33.6465960  45.4836130  55.6425130  33.8462880  46.0888740
  56.7761650  32.8705530  45.8550930  70.4597560  43.2596440  32.8829960
  70.1719260  43.7209130  33.6707840  71.2549730  42.7994210  33.1514180
  56.6439200  47.6346220  46.4702660  56.7530320  46.6940960  46.3298050
  55.9919760  47.9000970  45.8216390  64.6351790  45.9062110  47.8700780
  64.3148660  45.1871350  48.4146470  63.9610150  46.5817180  47.9436840
  62.6765960  46.7522560  32.8133930  62.6676060  47.4852250  32.1978440
  61.7564320  46.5054140  32.9060890  58.2772600  41.9737450  33.5580690
  57.6700550  42.7136350  33.5675990  58.7521950  42.0636810  32.7318890
  67.8505390  36.1388270  43.2337580  68.2186210  35.3183480  43.5617150
  66.9903590  36.1990160  43.6493230  71.2167420  35.0945210  34.0425140
  70.5880580  35.1990880  33.3283370  70.7219340  35.3141990  34.8319020
  65.6625560  46.8150800  31.4759120  65.7637540  46.6114790  30.5461100
  64.7627300  46.5609080  31.6806900  63.1851450  37.3731160  35.4583020
  62.4767600  37.8417500  35.8996630  63.4695930  36.7153170  36.0928210
  64.8107380  38.7927860  43.4575550  65.3092630  39.2673680  44.1227400
  64.9530330  37.8691380  43.6645580  67.2166880  34.0981820  36.8978810
  67.0934660  34.1167950  35.9488320  68.1651440  34.1460760  37.0177210
  64.3043670  49.3337120  36.1706790  64.5585170  49.2958510  35.2486160
  63.3556150  49.2070450  36.1635040  61.3886470  35.6816240  32.8333730
  62.2377000  36.1186390  32.7673920  61.0217740  35.9936500  33.6605790
  72.0174240  35.0095820  44.3003940  71.5147840  35.7501220  44.6397750
  72.8330900  35.3979820  43.9840730  70.3096250  40.2529000  37.7465300
  69.3686390  40.2679230  37.9212990  70.6240320  39.4664960  38.1925600
  60.2877890  41.9348600  31.3069260  61.0541160  41.8229960  31.8694690
  60.3652580  41.2386570  30.6546030  58.9824650  39.3673670  31.9902150
  59.0628240  38.4201180  32.1019550  59.8744400  39.6980550  32.0962810
  72.3121830  47.4237850  39.4219560  72.4369250  48.2469020  39.8943370
  73.1787390  47.2128580  39.0743710  59.7839360  49.5169060  39.0936690
  60.5201840  48.9684520  39.3645260  60.1680280  50.3825070  38.9542680
  56.6684840  45.5842630  34.9678200  55.7424620  45.8263770  34.9583610
  57.1341270  46.4116890  34.8462950  58.7897640  48.7015130  48.2822270
  59.5910370  49.0227180  48.6957670  58.2749460  48.3410710  49.0042180
  62.8941670  48.6899370  30.9162260  63.6870280  48.9788200  30.4644050
  62.3746020  48.2591540  30.2374740  67.6262270  44.8095000  48.2297680
  67.0200430  44.8326600  47.4893430  67.3216380  44.0778040  48.7664930
  69.0562640  48.5375290  46.8407090  70.0084390  48.4533310  46.7907330
  68.9090860  49.2017000  47.5140880  71.9471840  47.9169500  32.3399000
  71.6613350  47.5034640  31.5253180  71.7491390  48.8457210  32.2199520
  56.5095450  41.1888590  47.2258320  57.0134470  40.6095870  47.7974550
  55.7702870  41.4728820  47.7634690  63.4119070  43.9102780  30.7804610
  63.3069710  43.2955130  31.5065990  63.2443290  43.3868670  29.9967620
  63.5633390  42.5959580  46.7593840  62.7979060  43.1644580  46.6748510
  63.7449350  42.3035790  45.8662070  66.6521800  42.9722810  31.3846600
  66.1031900  43.4192110  32.0289340  67.2741060  42.4672060  31.9084270
  70.7056740  44.3264910  47.3168860  71.4466210  44.6640670  46.8136320
  69.9429420  44.4956970  46.7638630  58.5418530  39.3318180  48.1208390
  58.5823870  39.0332050  49.0293620  59.3964030  39.7325790  47.9615910
  62.3196920  41.9313730  33.2811900  62.7413340  41.7653600  34.1243290
  62.4447760  41.1213960  32.7867040  60.4824340  37.9110280  46.0882880
  59.9520800  37.4201230  45.4606220  61.1512410  38.3394480  45.5540810
  64.8324560  40.9551340  30.5289000  65.3530220  40.2400360  30.1630150
  65.4792960  41.5937210  30.8289510  69.3802400  42.3779740  45.8524070
  69.7943420  42.5324820  46.7014490  68.4453400  42.5034960  46.0149850
  69.8524570  39.7175900  47.8563220  70.4345340  38.9628220  47.7683700
  70.0286340  40.2483340  47.0794700  60.9696640  34.8772650  46.1680170
  60.8753510  34.2593400  45.4431040  60.3894030  35.6038940  45.9410080
  63.7358080  33.4345890  43.2007560  63.2875380  33.4570150  42.3553110
  63.1023280  33.0364910  43.7977860  64.1417630  42.3300220  43.8220000
  64.5605740  43.1732950  43.6496240  63.2226260  42.4672260  43.5926780
  66.4781530  40.0616400  45.2057840  66.5977740  39.4657540  45.9452680
  67.3375530  40.0986090  44.7859140  68.8169430  40.6153590  43.7820350
  68.2904650  41.1396210  43.1785490  69.1600770  41.2480980  44.4130080
  61.2155820  38.0046960  30.2270060  61.0144880  37.1414320  30.5883400
  61.0447870  37.9180320  29.2891660  61.9925050  48.6353230  44.9377730
  61.4546140  49.3599290  44.6186430  62.2459010  48.1583570  44.1475070
  63.2450300  36.6037750  46.4633660  63.8349990  36.2953600  47.1511480
  62.4270540  36.1317500  46.6193560  68.0643730  36.2203560  46.6966680
  67.3759250  35.5585100  46.6316670  68.7849750  35.7741830  47.1415140
  68.6944130  32.8155190  32.7556940  68.9746420  31.9723090  33.1116360
  67.9209860  33.0478300  33.2695690  60.0138620  35.1047580  30.2147940
  60.3164520  35.1115010  29.3067090  60.7533210  34.7545440  30.7115600
  64.8487260  49.8704440  45.1964380  64.7745960  50.7739580  45.5036750
  63.9466100  49.5516340  45.1686450  63.2323550  34.0482200  31.2004140
  62.8845550  33.3706190  30.6206590  63.4336320  33.5871710  32.0147530
  65.3972590  49.0362950  32.8190740  66.2923380  49.3747920  32.8409500
  65.4290220  48.3142360  32.1915020  59.0368750  44.4090000  31.0477740
  59.4743620  44.9519670  31.7035320  59.5216480  43.5836950  31.0574080
  56.2514550  47.1979030  38.4998000  56.5817560  46.3300090  38.2676640
  56.6805550  47.4037550  39.3302960  60.8476470  45.5288040  36.1599970
  60.5472010  45.4053010  37.0603880  60.7413960  44.6696630  35.7515700
  56.7404760  48.0649620  41.2379630  56.3035750  48.2450420  42.0703780
  57.3082440  48.8224240  41.0961350  72.3766940  47.5666620  45.5256940
  71.7768930  47.6259180  44.7820860  72.5060840  46.6271600  45.6553790
  73.6168390  45.3084440  30.8626650  72.7861350  45.3761090  31.3333880
  73.7940220  46.1988560  30.5593510  73.0724850  42.0531920  33.3660850
  73.8343760  42.6228570  33.4720540  73.0879220  41.4859120  34.1369160
  56.5729190  40.5769850  37.5968510  55.9178030  40.3081490  36.9528210
  57.4107140  40.4674330  37.1470490  74.0784820  42.9082020  38.2102780
  74.4493650  42.1249340  37.8038750  74.7186750  43.5971120  38.0320080
  71.0618580  44.2918600  43.6233100  70.2478420  44.7215760  43.8858890
  71.4692780  44.9037010  43.0102150  73.1244020  42.3466290  30.5233370
  73.3992860  43.2545170  30.3952590  72.9354760  42.2828820  31.4595360
  69.5219630  35.3711140  31.8187000  69.9404510  35.1842120  30.9783660
  69.2155690  34.5190190  32.1289930  73.0209360  40.2835280  35.5162800
  72.6452960  39.5163210  35.0844090  72.2912480  40.6657980  36.0037730
  57.6105120  40.9622420  42.1371850  57.9778160  40.8749820  43.0167870
  57.0415940  40.1988970  42.0378710  72.4108980  39.4306800  45.1502320
  72.1795070  39.2019550  44.2500270  72.6713530  40.3506350  45.1047210
  57.1621120  37.8731510  46.0430270  56.2677170  37.8398270  46.3823980
  57.7018670  38.0718300  46.8081520  70.8497050  34.6563230  47.9282020
  71.7267230  34.6646630  48.3116020  70.8617890  33.9194070  47.3174370
  55.7867270  37.7868780  33.5393840  54.8831350  38.0498980  33.3645500
  56.2707890  38.0579950  32.7593800  72.2960320  38.5092770  38.8170040
  72.8197800  38.0155420  38.1860210  72.8819740  38.6443130  39.5617610
  72.4750040  38.5932640  42.3389590  71.5252750  38.5596180  42.4534580
  72.6563050  39.5032750  42.1039360  58.3294480  36.8434320  31.4488220
  59.0386180  36.4217540  30.9635500  57.6134420  36.9109550  30.8171570
  57.9768640  32.8973650  30.4890870  58.6996770  33.4382590  30.8072090
  58.2493160  32.6237070  29.6132410  71.7860290  37.7666120  34.7562450
  72.2819410  37.5336990  35.5411330  71.5876360  36.9277960  34.3400090
  57.6660830  32.1479840  40.3913490  58.3137020  31.5977220  39.9508650
  58.0862670  32.4022990  41.2129300  73.2147450  36.4027070  37.2900130
  73.1046730  36.2483110  38.2282400  73.9755040  35.8748010  37.0475540
  71.5613170  32.3421200  43.7483130  72.1985390  32.9555340  44.1142320
  71.7088060  32.3781860  42.8032360  74.1037720  34.2334990  30.5306270
  75.0287030  34.1016170  30.3224560  74.0813510  34.3127810  31.4842720
  74.1776210  35.0045650  33.1562980  73.3827710  34.9390770  33.6855890
  74.3819490  35.9396290  33.1448330  71.1194630  49.0437200  37.1501370
  71.7153700  48.7221770  36.4735790  71.3772780  48.5709020  37.9414640
  57.4192830  32.3035510  43.1338810  57.0707650  32.7599330  43.8996990
  57.0880530  31.4092640  43.2161240  59.0257200  45.4755110  47.2992000
  58.9826830  45.1048020  48.1806460  59.1568210  46.4132680  47.4393820
  62.7263230  47.0314700  42.9001720  62.4854590  47.2989260  42.0132240
  63.6665870  47.2020430  42.9552580  64.9317650  33.4947390  46.6558230
  64.8706540  34.0869220  47.4053640  65.8718030  33.3873350  46.5108490
  67.5692210  33.1517450  46.2950520  68.1832620  33.4696740  45.6331600
  68.1141770  32.6666040  46.9146380  73.9867390  49.0509080  43.7012360
  73.4925670  49.4477950  42.9839490  73.3780680  48.4258290  44.0949640
  58.0913470  31.8311710  46.4089580  58.6396460  31.6499760  45.6455690
  58.1568780  31.0405820  46.9445890  58.8645230  48.4217360  44.4189780
  58.2705550  48.2902060  45.1579820  58.8569070  47.5855500  43.9531880
  68.3100250  31.7149590  42.6219810  67.4360090  32.0484700  42.4192740
  68.2011000  31.2422770  43.4471680  69.2172230  33.9220460  44.0061530
  68.8885590  33.1072220  43.6263260  70.1654530  33.8790270  43.8827220
  71.6706840  49.6932500  40.9799100  71.2109810  50.4448310  40.6057120
  71.0419300  48.9738970  40.9213900  58.4957460  45.7875740  43.3697820
  57.7691520  45.1681030  43.3023770  58.5566610  46.1816350  42.4995900
  62.1002560  48.0020740  40.1547230  62.6167580  47.3908100  39.6295490
  62.7499940  48.5049520  40.6458240  64.8398060  48.8929230  40.9816210
  65.1275870  48.6383530  40.1049220  65.3521280  48.3406590  41.5721780
  66.0575070  32.6319430  41.5612720  65.2746860  33.1064930  41.8409480
  65.7638000  31.7274260  41.4525900  70.6096140  33.3342530  39.6061810
  71.0504230  33.2787630  38.7583410  70.3403730  34.2500540  39.6771990
  72.4734710  32.9657770  37.6170630  72.4123110  32.0218990  37.4701650
  73.2526740  33.0737860  38.1624090  56.7787460  49.1050130  36.5794580
  56.6109500  48.4720810  37.2776470  55.9121970  49.3109530  36.2288770
  57.4015480  32.9366910  34.0826440  58.1594840  33.0495790  33.5090470
  56.9392650  33.7736110  34.0369870  63.9429290  35.0506180  37.0728750
  63.1303800  34.6763070  36.7324630  64.4470930  34.2951260  37.3749940
  68.4454270  31.7148630  38.3111820  69.0483640  32.2868840  38.7860340
  67.7047260  32.2788070  38.0885720  71.5888870  32.1170190  33.5852100
  71.7839500  33.0153640  33.8519530  70.8018740  31.8857270  34.0785050
  58.3850160  47.7983360  34.0244720  57.8597780  48.1791390  33.3206680
  58.3094740  48.4234130  34.7454430  59.7740630  33.4630960  32.6228410
  60.3033390  32.6760760  32.4936360  60.4068950  34.1422150  32.8563940
  61.9678470  33.2006100  35.6773800  61.3381210  32.4993410  35.8443930
  61.4283610  33.9610230  35.4606960  64.9070420  49.8145330  48.3484410
  65.8337730  49.5789600  48.3920370  64.8920850  50.6417330  47.8670440
  73.1415480  49.3570900  35.3458660  73.3167670  48.6708640  34.7019580
  72.4437050  49.8817950  34.9535330  62.0934030  32.4790080  48.1126290
  61.8118300  32.9823680  47.3487110  62.4753730  31.6811830  47.7468420
  60.9843130  49.7465740  32.8993970  61.7161950  49.4625020  32.3517860
  61.2436800  49.5079020  33.7893350  60.1457920  45.8630470  32.9040300
  59.5166800  46.3315570  33.4526130  60.2605750  45.0179690  33.3386490
  68.6949490  31.8943660  48.6906760  68.5814940  32.2138270  49.5858280
  69.5119230  32.2956170  48.3944040  71.4747980  49.0415190  48.1725450
  72.2673300  48.5464420  47.9651410  71.7681130  49.7205330  48.7801060
  67.6007640  39.9136130  19.0541500  67.5201690  38.9990740  18.7833210
  67.1872060  40.4103200  18.3481210  65.7325680  41.6915150  20.9350770
  64.9567780  41.2115590  21.2249340  66.3838610  41.0120800  20.7606930
  59.7491510  42.0034960  21.8126530  58.9176390  41.7483670  22.2123040
  60.3572490  42.0745730  22.5484450  69.7533110  46.0975340  19.7149900
  69.2914640  45.3262580  20.0437070  70.5658660  46.1241410  20.2202350
  59.7292770  46.0375050  22.0084550  60.0320810  45.1472790  21.8294770
  60.4736360  46.5945270  21.7806800  58.1583460  36.9636850  15.5968920
  57.2700160  37.3052820  15.4948800  58.4424650  36.7637170  14.7049750
  56.1216470  39.5642500  21.4808620  56.6932580  38.7964700  21.4812260
  56.1218010  39.8631260  20.5715230  65.9796420  48.3833350  19.3353890
  65.3607860  48.8390850  18.7648330  66.8348200  48.5384810  18.9343590
  65.1734670  44.3672340  20.9420930  65.1042950  43.4262280  20.7810060
  65.9354530  44.4573750  21.5143500  57.3641340  34.9726860  23.2677550
  57.1844180  34.0752610  23.5480310  56.9621420  35.5198730  23.9424500
  66.2039840  37.1742720  21.1689860  66.5804660  36.3014600  21.0563530
  66.1059350  37.5101420  20.2780300  60.3344850  35.5468350  16.6307300
  60.4411600  36.4472080  16.9376060  59.4237210  35.4986320  16.3401950
  69.9863960  34.6693160  18.1018200  70.8073580  34.1789730  18.1443680
  70.0198040  35.2590820  18.8550040  57.9828010  37.4687360  21.8759890
  58.6638120  37.7325730  22.4947290  57.6676060  36.6288230  22.2097900
  62.1752580  38.5154720  20.9632480  62.6830800  39.0135690  21.6037500
  62.7065820  37.7389920  20.7871840  74.2763510  36.6859910  24.6661830
  73.5715680  37.0741620  24.1476940  74.5421430  37.3810200  25.2682760
  60.4588680  33.1553280  25.2295900  60.4607120  33.6725670  24.4241800
  59.6292990  32.6783460  25.2065830  66.8459770  43.2672590  16.7285800
  66.2277040  43.7322040  16.1648520  67.3583020  43.9600070  17.1455310
  61.7091530  42.7948460  23.4069400  61.3760910  43.4217380  24.0490470
  61.8858210  43.3210340  22.6271070  70.2225440  36.6093540  20.8745740
  69.5181010  36.8978430  21.4548850  70.5837600  37.4193650  20.5145300
  60.1404010  34.8663240  23.2366350  60.4820820  35.7105290  22.9420220
  59.2019820  35.0146980  23.3531690  60.9210630  44.7629260  25.2218580
  61.5384630  45.4380340  24.9403030  60.0603750  45.1717240  25.1306080
  56.2142970  43.9529120  14.1025430  55.8370950  44.4416220  13.3710330
  56.4716040  44.6254400  14.7331960  71.8388220  46.2268670  23.1373220
  71.1551740  46.8967780  23.1289890  72.3782510  46.4249320  22.3718080
  73.2912360  36.0548330  21.2654950  72.3437270  36.0887310  21.3970380
  73.6162350  36.8687280  21.6504310  63.8231900  32.3545510  19.5610940
  64.1306880  31.7992400  18.8446440  62.8932600  32.4889970  19.3783930
  69.3746960  48.0712800  21.8518400  69.3874120  47.6675090  20.9840660
  68.8222180  48.8460090  21.7479830  70.6692380  44.7929020  16.9408570
  70.5588710  43.8503350  17.0657990  70.6660630  45.1544660  17.8271330
  68.7732400  42.9742640  23.1801010  69.1901190  42.7602750  22.3454470
  69.4972220  43.2315430  23.7509630  66.2112660  40.4194340  16.2971060
  65.2841940  40.3531720  16.5259530  66.3637480  41.3574470  16.1826300
  66.1981740  36.6911340  13.2938220  65.2585410  36.8525300  13.3790680
  66.5165000  37.4097020  12.7474210  72.7194500  41.3729860  23.2717250
  71.8913130  41.4422950  22.7967380  73.3144980  41.9584170  22.8033080
  70.2409950  41.9814640  16.8006310  69.6222370  41.6434190  16.1532610
  70.2234400  41.3374400  17.5085500  69.6836510  38.1599180  24.2172120
  69.2707690  38.9852890  24.4712110  68.9512460  37.5744220  24.0248480
  61.8169300  40.9459080  19.0790790  61.4126300  40.2336330  18.5836690
  61.9032420  40.6012320  19.9678830  62.2851000  44.6326640  21.2430000
  61.9879290  44.0272110  20.5637780  63.2350820  44.6703950  21.1319360
  60.5297920  37.7202290  22.8589830  61.0812510  37.8297630  22.0843080
  61.0441430  38.0939890  23.5745060  70.3736610  48.2058510  24.9053100
  69.8967170  49.0130700  24.7125710  69.6898400  47.5536840  25.0579310
  61.3769430  44.3708330  27.8937800  60.4797960  44.5948300  28.1411200
  61.4022300  44.4943270  26.9449200  68.4174650  41.2201450  13.8079060
  68.8567930  40.3823880  13.6616880  69.1303070  41.8530850  13.8943200
  60.2040650  41.2421650  26.4695170  60.0648420  42.1144450  26.8382570
  59.3222010  40.8994460  26.3243110  66.5270030  46.1597520  17.7760300
  66.9665940  46.9021850  17.3615690  66.4656920  46.4024090  18.6999260
  62.0021000  47.1843350  28.6780320  61.9736430  47.5886300  27.8108750
  61.8385970  46.2553710  28.5151920  71.9991790  32.4744260  12.1220100
  71.6864450  32.5671090  13.0219170  72.7604260  33.0525290  12.0717530
  58.5173930  39.8404060  16.5797440  58.3971530  40.5666150  15.9678710
  58.2074820  39.0706970  16.1025350  73.9535820  47.9670450  29.9744490
  74.4295540  48.4453340  30.6533570  74.5742980  47.8987940  29.2489990
  56.1559300  43.0119200  22.3866080  56.2339720  43.1467970  21.4421800
  56.7700980  42.3035090  22.5794200  57.4006930  44.7119390  18.7972260
  56.9935010  44.8533980  17.9425860  58.2919940  44.4279550  18.5943470
  73.3569070  45.1583300  27.1344500  73.4832130  44.9195180  26.2161680
  73.3990450  44.3267840  27.6066580  67.2185810  48.8611300  25.7039310
  67.7330480  48.7719310  26.5061740  66.3754890  49.2071000  25.9967220
  69.1940210  49.1466640  15.1323310  69.0341350  48.8569580  16.0305140
  69.0286920  48.3706770  14.5968540  61.6728590  48.9265170  16.9094930
  61.4971070  48.0100710  16.6962730  60.8184330  49.2852460  17.1492730
  68.8966340  46.6554200  13.6921310  68.2031500  46.6531490  13.0323590
  69.6389200  46.2313520  13.2615480  68.4616270  48.2816910  17.7669800
  68.9173220  47.5006290  18.0808420  68.8008790  48.9923730  18.3110980
  73.2093080  37.2115760  28.0994240  72.5937350  37.7195430  27.5709700
  72.8889500  36.3114090  28.0420180  56.2118820  44.0533370  24.9260540
  56.3749860  43.5838730  24.1079910  56.6771270  43.5456930  25.5909380
  60.9837590  33.1839130  19.9621110  60.5405740  33.9648670  19.6305630
  61.5422580  33.5069020  20.6692050  65.2707400  36.0507650  25.5656430
  64.8086770  36.2590670  26.3776370  64.8685510  35.2367000  25.2627100
  70.2711910  37.2716600  26.6953090  69.4205500  36.9722350  27.0162160
  70.1113700  37.5158610  25.7836910  67.3661620  38.7718350  28.7951880
  67.6915030  37.9382100  28.4554110  68.1541950  39.2946870  28.9430210
  64.0996410  32.8049830  14.8426940  63.4750590  32.8009700  15.5680250
  64.0126530  31.9380790  14.4462910  63.0213490  33.7286460  21.8210710
  63.3185820  34.6349290  21.7402730  63.5699050  33.2405240  21.2070280
  60.7751810  38.3072700  17.6902360  60.5492730  38.0909870  18.5948980
  59.9944340  38.7401160  17.3448330  68.0049570  38.3136070  16.2893010
  67.4058460  39.0371870  16.1056630  68.5529180  38.2512850  15.5069460
  63.2151020  39.2058280  28.3562630  63.1194620  38.2653010  28.2063030
  64.0583000  39.4273350  27.9610700  66.6114440  36.9499610  18.3196290
  67.0044010  37.2671810  17.5064980  66.9731290  36.0711490  18.4340810
  58.3461560  35.6171950  26.5096410  57.9524950  36.4647160  26.7169190
  57.6579960  34.9798320  26.7005050  64.9206610  35.7006920  29.5793150
  64.2304930  35.5079120  30.2139240  65.6638910  35.9841560  30.1117450
  55.6478610  33.5400410  20.5426490  55.3591660  34.1103270  21.2551470
  56.3924370  33.0604860  20.9057720  55.8348840  37.4820530  11.7529210
  55.7523510  38.4251290  11.8944200  55.4831900  37.3395440  10.8741560
  67.1969580  39.5405360  22.4147070  66.4650700  40.0492170  22.7637170
  66.7993920  38.7235340  22.1135850  63.6346970  36.2159560  20.8199560
  63.6383030  35.7749510  19.9704100  64.5298090  36.5376890  20.9271380
  59.4849350  36.0986050  19.7793770  59.1449400  36.5761280  20.5360820
  58.7226670  35.6451170  19.4194870  63.6967120  37.2171640  13.8106320
  63.8179940  37.1758120  14.7592140  63.3115630  38.0795790  13.6553050
  67.6595490  34.9939040  21.8270010  67.6768230  35.4447690  22.6711860
  67.4111070  34.0944680  22.0403450  62.7088620  39.5272780  13.2089620
  62.1405520  39.0791030  12.5825530  63.4177620  39.8865560  12.6754770
  71.0866240  32.4071220  27.6656390  71.4112010  31.6760880  28.1914370
  71.1222750  32.0884860  26.7637380  57.7857800  43.4284800  27.0856350
  57.4012590  42.7878470  27.6839310  58.0969990  44.1320920  27.6551080
  63.9354940  40.2761340  22.5664970  64.3025070  39.8019910  23.3126310
  63.7460000  41.1502910  22.9073310  56.7995430  35.0205030  18.6958440
  56.5142350  34.6560700  19.5337060  56.7374290  34.2885490  18.0821580
  61.7254310  39.3169980  24.8849180  61.4211380  40.1961960  25.1099540
  62.6800770  39.3769770  24.9206620  60.2536100  43.5230970  15.4816030
  59.4798360  42.9828590  15.3214750  60.9830730  43.0037580  15.1433790
  71.0124080  42.5196330  21.2742420  71.7323200  43.0151620  20.8838530
  70.8105900  41.8414220  20.6296290  66.4734020  33.9134290  15.4171810
  65.6598630  33.4147460  15.3417120  66.2795970  34.7532540  15.0008160
  66.3942880  42.5905390  27.1611420  66.3280190  41.6701060  26.9069010
  65.7648020  42.6880830  27.8756060  69.1882410  38.2853940  13.7133970
  70.0762030  38.5971170  13.5385310  69.1587500  37.4126190  13.3214550
  60.2973500  43.1911350  19.1194840  60.8152170  42.3879610  19.0651730
  59.8457520  43.1290490  19.9611670  65.1843000  44.4577630  14.3922140
  65.5258700  45.2019860  13.8965460  64.3555710  44.7708750  14.7546970
  57.7818040  40.1572720  26.0320540  57.4232980  40.8226570  26.6193880
  57.4872600  39.3256270  26.4033160  60.9831160  40.6156960  28.9160090
  60.6831300  40.7614140  28.0187910  61.7542400  40.0562250  28.8233480
  66.3259610  45.4125960  26.9115220  66.3404150  44.4806920  26.6934130
  65.6184710  45.4985720  27.5504990  71.4596680  39.5965780  13.1813830
  71.3760400  40.0280000  12.3310270  72.1790870  40.0564130  13.6140650
  72.5370820  42.0533300  26.2583800  71.8119010  42.6462080  26.0613190
  73.0646280  42.0456840  25.4597170  72.4883930  46.4508040  15.9095960
  71.8460090  45.7963660  16.1839680  72.1014590  46.8563130  15.1336630
  68.0670410  43.7793470  19.7567650  68.4194230  43.1821600  19.0969020
  67.1832740  43.4537700  19.9275900  64.1533690  44.5391160  17.1638060
  64.8404820  45.0860370  17.5445650  63.3666110  45.0831890  17.1987670
  56.2926090  40.1563980  12.6555140  57.1620940  40.4388780  12.9391060
  55.8016410  40.9699850  12.5403950  63.4560900  41.5437190  16.7763420
  63.9123680  42.3542440  17.0023610  63.1049110  41.2260330  17.6081910
  65.7593510  47.0543530  24.0055720  66.4035730  47.2602910  24.6829140
  66.1222950  46.2931930  23.5526570  59.3572680  31.8874840  17.2485940
  59.2287310  31.8792740  18.1970860  58.5334700  32.2257930  16.8976950
  67.0325590  45.0575880  22.7233170  67.6747820  44.3569040  22.8365340
  67.5574940  45.8374320  22.5430060  70.8781310  45.3424500  12.4472310
  70.6518890  44.6254940  13.0396950  70.4877510  45.0936940  11.6094060
  68.8063210  45.8570780  25.9269230  69.1419450  46.4437470  26.6047150
  67.8863550  45.7263490  26.1567020  56.6597340  49.3691360  13.2216770
  57.0194980  49.9680700  12.5674040  56.5189680  49.9151250  13.9951800
  56.3566610  33.6465960  26.7092640  55.6425130  33.8462880  27.3145250
  56.7761650  32.8705530  27.0807440  70.4597560  43.2596440  14.1086470
  70.1719260  43.7209130  14.8964350  71.2549730  42.7994210  14.3770690
  56.6439200  47.6346220  27.6959170  56.7530320  46.6940960  27.5554560
  55.9919760  47.9000970  27.0472900  64.6351790  45.9062110  29.0957290
  64.3148660  45.1871350  29.6402980  63.9610150  46.5817180  29.1693350
  62.6765960  46.7522560  14.0390440  62.6676060  47.4852250  13.4234950
  61.7564320  46.5054140  14.1317400  58.2772600  41.9737450  14.7837200
  57.6700550  42.7136350  14.7932500  58.7521950  42.0636810  13.9575400
  67.8505390  36.1388270  24.4594090  68.2186210  35.3183480  24.7873660
  66.9903590  36.1990160  24.8749740  71.2167420  35.0945210  15.2681650
  70.5880580  35.1990880  14.5539880  70.7219340  35.3141990  16.0575530
  65.6625560  46.8150800  12.7015630  65.7637540  46.6114790  11.7717610
  64.7627300  46.5609080  12.9063410  63.1851450  37.3731160  16.6839530
  62.4767600  37.8417500  17.1253140  63.4695930  36.7153170  17.3184720
  64.8107380  38.7927860  24.6832060  65.3092630  39.2673680  25.3483910
  64.9530330  37.8691380  24.8902090  67.2166880  34.0981820  18.1235320
  67.0934660  34.1167950  17.1744830  68.1651440  34.1460760  18.2433720
  64.3043670  49.3337120  17.3963300  64.5585170  49.2958510  16.4742670
  63.3556150  49.2070450  17.3891550  61.3886470  35.6816240  14.0590240
  62.2377000  36.1186390  13.9930430  61.0217740  35.9936500  14.8862300
  72.0174240  35.0095820  25.5260450  71.5147840  35.7501220  25.8654260
  72.8330900  35.3979820  25.2097240  70.3096250  40.2529000  18.9721810
  69.3686390  40.2679230  19.1469500  70.6240320  39.4664960  19.4182110
  60.2877890  41.9348600  12.5325770  61.0541160  41.8229960  13.0951200
  60.3652580  41.2386570  11.8802540  58.9824650  39.3673670  13.2158660
  59.0628240  38.4201180  13.3276060  59.8744400  39.6980550  13.3219320
  72.3121830  47.4237850  20.6476070  72.4369250  48.2469020  21.1199880
  73.1787390  47.2128580  20.3000220  59.7839360  49.5169060  20.3193200
  60.5201840  48.9684520  20.5901770  60.1680280  50.3825070  20.1799190
  56.6684840  45.5842630  16.1934710  55.7424620  45.8263770  16.1840120
  57.1341270  46.4116890  16.0719460  58.7897640  48.7015130  29.5078780
  59.5910370  49.0227180  29.9214180  58.2749460  48.3410710  30.2298690
  62.8941670  48.6899370  12.1418770  63.6870280  48.9788200  11.6900560
  62.3746020  48.2591540  11.4631250  67.6262270  44.8095000  29.4554190
  67.0200430  44.8326600  28.7149940  67.3216380  44.0778040  29.9921440
  69.0562640  48.5375290  28.0663600  70.0084390  48.4533310  28.0163840
  68.9090860  49.2017000  28.7397390  71.9471840  47.9169500  13.5655510
  71.6613350  47.5034640  12.7509690  71.7491390  48.8457210  13.4456030
  56.5095450  41.1888590  28.4514830  57.0134470  40.6095870  29.0231060
  55.7702870  41.4728820  28.9891200  63.4119070  43.9102780  12.0061120
  63.3069710  43.2955130  12.7322500  63.2443290  43.3868670  11.2224130
  63.5633390  42.5959580  27.9850350  62.7979060  43.1644580  27.9005020
  63.7449350  42.3035790  27.0918580  66.6521800  42.9722810  12.6103110
  66.1031900  43.4192110  13.2545850  67.2741060  42.4672060  13.1340780
  70.7056740  44.3264910  28.5425370  71.4466210  44.6640670  28.0392830
  69.9429420  44.4956970  27.9895140  58.5418530  39.3318180  29.3464900
  58.5823870  39.0332050  30.2550130  59.3964030  39.7325790  29.1872420
  62.3196920  41.9313730  14.5068410  62.7413340  41.7653600  15.3499800
  62.4447760  41.1213960  14.0123550  60.4824340  37.9110280  27.3139390
  59.9520800  37.4201230  26.6862730  61.1512410  38.3394480  26.7797320
  64.8324560  40.9551340  11.7545510  65.3530220  40.2400360  11.3886660
  65.4792960  41.5937210  12.0546020  69.3802400  42.3779740  27.0780580
  69.7943420  42.5324820  27.9271000  68.4453400  42.5034960  27.2406360
  69.8524570  39.7175900  29.0819730  70.4345340  38.9628220  28.9940210
  70.0286340  40.2483340  28.3051210  60.9696640  34.8772650  27.3936680
  60.8753510  34.2593400  26.6687550  60.3894030  35.6038940  27.1666590
  63.7358080  33.4345890  24.4264070  63.2875380  33.4570150  23.5809620
  63.1023280  33.0364910  25.0234370  64.1417630  42.3300220  25.0476510
  64.5605740  43.1732950  24.8752750  63.2226260  42.4672260  24.8183290
  66.4781530  40.0616400  26.4314350  66.5977740  39.4657540  27.1709190
  67.3375530  40.0986090  26.0115650  68.8169430  40.6153590  25.0076860
  68.2904650  41.1396210  24.4042000  69.1600770  41.2480980  25.6386590
  61.2155820  38.0046960  11.4526570  61.0144880  37.1414320  11.8139910
  61.0447870  37.9180320  10.5148170  61.9925050  48.6353230  26.1634240
  61.4546140  49.3599290  25.8442940  62.2459010  48.1583570  25.3731580
  63.2450300  36.6037750  27.6890170  63.8349990  36.2953600  28.3767990
  62.4270540  36.1317500  27.8450070  68.0643730  36.2203560  27.9223190
  67.3759250  35.5585100  27.8573180  68.7849750  35.7741830  28.3671650
  68.6944130  32.8155190  13.9813450  68.9746420  31.9723090  14.3372870
  67.9209860  33.0478300  14.4952200  60.0138620  35.1047580  11.4404450
  60.3164520  35.1115010  10.5323600  60.7533210  34.7545440  11.9372110
  64.8487260  49.8704440  26.4220890  64.7745960  50.7739580  26.7293260
  63.9466100  49.5516340  26.3942960  63.2323550  34.0482200  12.4260650
  62.8845550  33.3706190  11.8463100  63.4336320  33.5871710  13.2404040
  65.3972590  49.0362950  14.0447250  66.2923380  49.3747920  14.0666010
  65.4290220  48.3142360  13.4171530  59.0368750  44.4090000  12.2734250
  59.4743620  44.9519670  12.9291830  59.5216480  43.5836950  12.2830590
  56.2514550  47.1979030  19.7254510  56.5817560  46.3300090  19.4933150
  56.6805550  47.4037550  20.5559470  60.8476470  45.5288040  17.3856480
  60.5472010  45.4053010  18.2860390  60.7413960  44.6696630  16.9772210
  56.7404760  48.0649620  22.4636140  56.3035750  48.2450420  23.2960290
  57.3082440  48.8224240  22.3217860  72.3766940  47.5666620  26.7513450
  71.7768930  47.6259180  26.0077370  72.5060840  46.6271600  26.8810300
  73.6168390  45.3084440  12.0883160  72.7861350  45.3761090  12.5590390
  73.7940220  46.1988560  11.7850020  73.0724850  42.0531920  14.5917360
  73.8343760  42.6228570  14.6977050  73.0879220  41.4859120  15.3625670
  56.5729190  40.5769850  18.8225020  55.9178030  40.3081490  18.1784720
  57.4107140  40.4674330  18.3727000  74.0784820  42.9082020  19.4359290
  74.4493650  42.1249340  19.0295260  74.7186750  43.5971120  19.2576590
  71.0618580  44.2918600  24.8489610  70.2478420  44.7215760  25.1115400
  71.4692780  44.9037010  24.2358660  73.1244020  42.3466290  11.7489880
  73.3992860  43.2545170  11.6209100  72.9354760  42.2828820  12.6851870
  69.5219630  35.3711140  13.0443510  69.9404510  35.1842120  12.2040170
  69.2155690  34.5190190  13.3546440  73.0209360  40.2835280  16.7419310
  72.6452960  39.5163210  16.3100600  72.2912480  40.6657980  17.2294240
  57.6105120  40.9622420  23.3628360  57.9778160  40.8749820  24.2424380
  57.0415940  40.1988970  23.2635220  72.4108980  39.4306800  26.3758830
  72.1795070  39.2019550  25.4756780  72.6713530  40.3506350  26.3303720
  57.1621120  37.8731510  27.2686780  56.2677170  37.8398270  27.6080490
  57.7018670  38.0718300  28.0338030  70.8497050  34.6563230  29.1538530
  71.7267230  34.6646630  29.5372530  70.8617890  33.9194070  28.5430880
  55.7867270  37.7868780  14.7650350  54.8831350  38.0498980  14.5902010
  56.2707890  38.0579950  13.9850310  72.2960320  38.5092770  20.0426550
  72.8197800  38.0155420  19.4116720  72.8819740  38.6443130  20.7874120
  72.4750040  38.5932640  23.5646100  71.5252750  38.5596180  23.6791090
  72.6563050  39.5032750  23.3295870  58.3294480  36.8434320  12.6744730
  59.0386180  36.4217540  12.1892010  57.6134420  36.9109550  12.0428080
  57.9768640  32.8973650  11.7147380  58.6996770  33.4382590  12.0328600
  58.2493160  32.6237070  10.8388920  71.7860290  37.7666120  15.9818960
  72.2819410  37.5336990  16.7667840  71.5876360  36.9277960  15.5656600
  57.6660830  32.1479840  21.6170000  58.3137020  31.5977220  21.1765160
  58.0862670  32.4022990  22.4385810  73.2147450  36.4027070  18.5156640
  73.1046730  36.2483110  19.4538910  73.9755040  35.8748010  18.2732050
  71.5613170  32.3421200  24.9739640  72.1985390  32.9555340  25.3398830
  71.7088060  32.3781860  24.0288870  74.1037720  34.2334990  11.7562780
  75.0287030  34.1016170  11.5481070  74.0813510  34.3127810  12.7099230
  74.1776210  35.0045650  14.3819490  73.3827710  34.9390770  14.9112400
  74.3819490  35.9396290  14.3704840  71.1194630  49.0437200  18.3757880
  71.7153700  48.7221770  17.6992300  71.3772780  48.5709020  19.1671150
  57.4192830  32.3035510  24.3595320  57.0707650  32.7599330  25.1253500
  57.0880530  31.4092640  24.4417750  59.0257200  45.4755110  28.5248510
  58.9826830  45.1048020  29.4062970  59.1568210  46.4132680  28.6650330
  62.7263230  47.0314700  24.1258230  62.4854590  47.2989260  23.2388750
  63.6665870  47.2020430  24.1809090  64.9317650  33.4947390  27.8814740
  64.8706540  34.0869220  28.6310150  65.8718030  33.3873350  27.7365000
  67.5692210  33.1517450  27.5207030  68.1832620  33.4696740  26.8588110
  68.1141770  32.6666040  28.1402890  73.9867390  49.0509080  24.9268870
  73.4925670  49.4477950  24.2096000  73.3780680  48.4258290  25.3206150
  58.0913470  31.8311710  27.6346090  58.6396460  31.6499760  26.8712200
  58.1568780  31.0405820  28.1702400  58.8645230  48.4217360  25.6446290
  58.2705550  48.2902060  26.3836330  58.8569070  47.5855500  25.1788390
  68.3100250  31.7149590  23.8476320  67.4360090  32.0484700  23.6449250
  68.2011000  31.2422770  24.6728190  69.2172230  33.9220460  25.2318040
  68.8885590  33.1072220  24.8519770  70.1654530  33.8790270  25.1083730
  71.6706840  49.6932500  22.2055610  71.2109810  50.4448310  21.8313630
  71.0419300  48.9738970  22.1470410  58.4957460  45.7875740  24.5954330
  57.7691520  45.1681030  24.5280280  58.5566610  46.1816350  23.7252410
  62.1002560  48.0020740  21.3803740  62.6167580  47.3908100  20.8552000
  62.7499940  48.5049520  21.8714750  64.8398060  48.8929230  22.2072720
  65.1275870  48.6383530  21.3305730  65.3521280  48.3406590  22.7978290
  66.0575070  32.6319430  22.7869230  65.2746860  33.1064930  23.0665990
  65.7638000  31.7274260  22.6782410  70.6096140  33.3342530  20.8318320
  71.0504230  33.2787630  19.9839920  70.3403730  34.2500540  20.9028500
  72.4734710  32.9657770  18.8427140  72.4123110  32.0218990  18.6958160
  73.2526740  33.0737860  19.3880600  56.7787460  49.1050130  17.8051090
  56.6109500  48.4720810  18.5032980  55.9121970  49.3109530  17.4545280
  57.4015480  32.9366910  15.3082950  58.1594840  33.0495790  14.7346980
  56.9392650  33.7736110  15.2626380  63.9429290  35.0506180  18.2985260
  63.1303800  34.6763070  17.9581140  64.4470930  34.2951260  18.6006450
  68.4454270  31.7148630  19.5368330  69.0483640  32.2868840  20.0116850
  67.7047260  32.2788070  19.3142230  71.5888870  32.1170190  14.8108610
  71.7839500  33.0153640  15.0776040  70.8018740  31.8857270  15.3041560
  58.3850160  47.7983360  15.2501230  57.8597780  48.1791390  14.5463190
  58.3094740  48.4234130  15.9710940  59.7740630  33.4630960  13.8484920
  60.3033390  32.6760760  13.7192870  60.4068950  34.1422150  14.0820450
  61.9678470  33.2006100  16.9030310  61.3381210  32.4993410  17.0700440
  61.4283610  33.9610230  16.6863470  64.9070420  49.8145330  29.5740920
  65.8337730  49.5789600  29.6176880  64.8920850  50.6417330  29.0926950
  73.1415480  49.3570900  16.5715170  73.3167670  48.6708640  15.9276090
  72.4437050  49.8817950  16.1791840  62.0934030  32.4790080  29.3382800
  61.8118300  32.9823680  28.5743620  62.4753730  31.6811830  28.9724930
  60.9843130  49.7465740  14.1250480  61.7161950  49.4625020  13.5774370
  61.2436800  49.5079020  15.0149860  60.1457920  45.8630470  14.1296810
  59.5166800  46.3315570  14.6782640  60.2605750  45.0179690  14.5643000
  68.6949490  31.8943660  29.9163270  68.5814940  32.2138270  30.8114790
  69.5119230  32.2956170  29.6200550  71.4747980  49.0415190  29.3981960
  72.2673300  48.5464420  29.1907920  71.7681130  49.7205330  30.0057570
  65.7325680  41.6915150   2.1607280  64.9567780  41.2115590   2.4505850
  66.3838610  41.0120800   1.9863440  59.7491510  42.0034960   3.0383040
  58.9176390  41.7483670   3.4379550  60.3572490  42.0745730   3.7740960
  59.7292770  46.0375050   3.2341060  60.0320810  45.1472790   3.0551280
  60.4736360  46.5945270   3.0063310  56.1216470  39.5642500   2.7065130
  56.6932580  38.7964700   2.7068770  56.1218010  39.8631260   1.7971740
  65.1734670  44.3672340   2.1677440  65.1042950  43.4262280   2.0066570
  65.9354530  44.4573750   2.7400010  57.3641340  34.9726860   4.4934060
  57.1844180  34.0752610   4.7736820  56.9621420  35.5198730   5.1681010
  66.2039840  37.1742720   2.3946370  66.5804660  36.3014600   2.2820040
  66.1059350  37.5101420   1.5036810  57.9828010  37.4687360   3.1016400
  58.6638120  37.7325730   3.7203800  57.6676060  36.6288230   3.4354410
  62.1752580  38.5154720   2.1888990  62.6830800  39.0135690   2.8294010
  62.7065820  37.7389920   2.0128350  74.2763510  36.6859910   5.8918340
  73.5715680  37.0741620   5.3733450  74.5421430  37.3810200   6.4939270
  60.4588680  33.1553280   6.4552410  60.4607120  33.6725670   5.6498310
  59.6292990  32.6783460   6.4322340  61.7091530  42.7948460   4.6325910
  61.3760910  43.4217380   5.2746980  61.8858210  43.3210340   3.8527580
  70.2225440  36.6093540   2.1002250  69.5181010  36.8978430   2.6805360
  70.5837600  37.4193650   1.7401810  60.1404010  34.8663240   4.4622860
  60.4820820  35.7105290   4.1676730  59.2019820  35.0146980   4.5788200
  60.9210630  44.7629260   6.4475090  61.5384630  45.4380340   6.1659540
  60.0603750  45.1717240   6.3562590  71.8388220  46.2268670   4.3629730
  71.1551740  46.8967780   4.3546400  72.3782510  46.4249320   3.5974590
  73.2912360  36.0548330   2.4911460  72.3437270  36.0887310   2.6226890
  73.6162350  36.8687280   2.8760820  69.3746960  48.0712800   3.0774910
  69.3874120  47.6675090   2.2097170  68.8222180  48.8460090   2.9736340
  68.7732400  42.9742640   4.4057520  69.1901190  42.7602750   3.5710980
  69.4972220  43.2315430   4.9766140  72.7194500  41.3729860   4.4973760
  71.8913130  41.4422950   4.0223890  73.3144980  41.9584170   4.0289590
  69.6836510  38.1599180   5.4428630  69.2707690  38.9852890   5.6968620
  68.9512460  37.5744220   5.2504990  62.2851000  44.6326640   2.4686510
  61.9879290  44.0272110   1.7894290  63.2350820  44.6703950   2.3575870
  60.5297920  37.7202290   4.0846340  61.0812510  37.8297630   3.3099590
  61.0441430  38.0939890   4.8001570  70.3736610  48.2058510   6.1309610
  69.8967170  49.0130700   5.9382220  69.6898400  47.5536840   6.2835820
  61.3769430  44.3708330   9.1194310  60.4797960  44.5948300   9.3667710
  61.4022300  44.4943270   8.1705710  60.2040650  41.2421650   7.6951680
  60.0648420  42.1144450   8.0639080  59.3222010  40.8994460   7.5499620
  62.0021000  47.1843350   9.9036830  61.9736430  47.5886300   9.0365260
  61.8385970  46.2553710   9.7408430  73.9535820  47.9670450  11.2001000
  74.4295540  48.4453340  11.8790080  74.5742980  47.8987940  10.4746500
  56.1559300  43.0119200   3.6122590  56.2339720  43.1467970   2.6678310
  56.7700980  42.3035090   3.8050710  73.3569070  45.1583300   8.3601010
  73.4832130  44.9195180   7.4418190  73.3990450  44.3267840   8.8323090
  67.2185810  48.8611300   6.9295820  67.7330480  48.7719310   7.7318250
  66.3754890  49.2071000   7.2223730  73.2093080  37.2115760   9.3250750
  72.5937350  37.7195430   8.7966210  72.8889500  36.3114090   9.2676690
  56.2118820  44.0533370   6.1517050  56.3749860  43.5838730   5.3336420
  56.6771270  43.5456930   6.8165890  65.2707400  36.0507650   6.7912940
  64.8086770  36.2590670   7.6032880  64.8685510  35.2367000   6.4883610
  70.2711910  37.2716600   7.9209600  69.4205500  36.9722350   8.2418670
  70.1113700  37.5158610   7.0093420  67.3661620  38.7718350  10.0208390
  67.6915030  37.9382100   9.6810620  68.1541950  39.2946870  10.1686720
  63.0213490  33.7286460   3.0467220  63.3185820  34.6349290   2.9659240
  63.5699050  33.2405240   2.4326790  63.2151020  39.2058280   9.5819140
  63.1194620  38.2653010   9.4319540  64.0583000  39.4273350   9.1867210
  58.3461560  35.6171950   7.7352920  57.9524950  36.4647160   7.9425700
  57.6579960  34.9798320   7.9261560  64.9206610  35.7006920  10.8049660
  64.2304930  35.5079120  11.4395750  65.6638910  35.9841560  11.3373960
  55.6478610  33.5400410   1.7683000  55.3591660  34.1103270   2.4807980
  56.3924370  33.0604860   2.1314230  67.1969580  39.5405360   3.6403580
  66.4650700  40.0492170   3.9893680  66.7993920  38.7235340   3.3392360
  67.6595490  34.9939040   3.0526520  67.6768230  35.4447690   3.8968370
  67.4111070  34.0944680   3.2659960  71.0866240  32.4071220   8.8912900
  71.4112010  31.6760880   9.4170880  71.1222750  32.0884860   7.9893890
  57.7857800  43.4284800   8.3112860  57.4012590  42.7878470   8.9095820
  58.0969990  44.1320920   8.8807590  63.9354940  40.2761340   3.7921480
  64.3025070  39.8019910   4.5382820  63.7460000  41.1502910   4.1329820
  61.7254310  39.3169980   6.1105690  61.4211380  40.1961960   6.3356050
  62.6800770  39.3769770   6.1463130  71.0124080  42.5196330   2.4998930
  71.7323200  43.0151620   2.1095040  70.8105900  41.8414220   1.8552800
  66.3942880  42.5905390   8.3867930  66.3280190  41.6701060   8.1325520
  65.7648020  42.6880830   9.1012570  57.7818040  40.1572720   7.2577050
  57.4232980  40.8226570   7.8450390  57.4872600  39.3256270   7.6289670
  60.9831160  40.6156960  10.1416600  60.6831300  40.7614140   9.2444420
  61.7542400  40.0562250  10.0489990  66.3259610  45.4125960   8.1371730
  66.3404150  44.4806920   7.9190640  65.6184710  45.4985720   8.7761500
  72.5370820  42.0533300   7.4840310  71.8119010  42.6462080   7.2869700
  73.0646280  42.0456840   6.6853680  65.7593510  47.0543530   5.2312230
  66.4035730  47.2602910   5.9085650  66.1222950  46.2931930   4.7783080
  67.0325590  45.0575880   3.9489680  67.6747820  44.3569040   4.0621850
  67.5574940  45.8374320   3.7686570  68.8063210  45.8570780   7.1525740
  69.1419450  46.4437470   7.8303660  67.8863550  45.7263490   7.3823530
  56.3566610  33.6465960   7.9349150  55.6425130  33.8462880   8.5401760
  56.7761650  32.8705530   8.3063950  56.6439200  47.6346220   8.9215680
  56.7530320  46.6940960   8.7811070  55.9919760  47.9000970   8.2729410
  64.6351790  45.9062110  10.3213800  64.3148660  45.1871350  10.8659490
  63.9610150  46.5817180  10.3949860  67.8505390  36.1388270   5.6850600
  68.2186210  35.3183480   6.0130170  66.9903590  36.1990160   6.1006250
  64.8107380  38.7927860   5.9088570  65.3092630  39.2673680   6.5740420
  64.9530330  37.8691380   6.1158600  72.0174240  35.0095820   6.7516960
  71.5147840  35.7501220   7.0910770  72.8330900  35.3979820   6.4353750
  72.3121830  47.4237850   1.8732580  72.4369250  48.2469020   2.3456390
  73.1787390  47.2128580   1.5256730  58.7897640  48.7015130  10.7335290
  59.5910370  49.0227180  11.1470690  58.2749460  48.3410710  11.4555200
  67.6262270  44.8095000  10.6810700  67.0200430  44.8326600   9.9406450
  67.3216380  44.0778040  11.2177950  69.0562640  48.5375290   9.2920110
  70.0084390  48.4533310   9.2420350  68.9090860  49.2017000   9.9653900
  56.5095450  41.1888590   9.6771340  57.0134470  40.6095870  10.2487570
  55.7702870  41.4728820  10.2147710  63.5633390  42.5959580   9.2106860
  62.7979060  43.1644580   9.1261530  63.7449350  42.3035790   8.3175090
  70.7056740  44.3264910   9.7681880  71.4466210  44.6640670   9.2649340
  69.9429420  44.4956970   9.2151650  58.5418530  39.3318180  10.5721410
  58.5823870  39.0332050  11.4806640  59.3964030  39.7325790  10.4128930
  60.4824340  37.9110280   8.5395900  59.9520800  37.4201230   7.9119240
  61.1512410  38.3394480   8.0053830  69.3802400  42.3779740   8.3037090
  69.7943420  42.5324820   9.1527510  68.4453400  42.5034960   8.4662870
  69.8524570  39.7175900  10.3076240  70.4345340  38.9628220  10.2196720
  70.0286340  40.2483340   9.5307720  60.9696640  34.8772650   8.6193190
  60.8753510  34.2593400   7.8944060  60.3894030  35.6038940   8.3923100
  63.7358080  33.4345890   5.6520580  63.2875380  33.4570150   4.8066130
  63.1023280  33.0364910   6.2490880  64.1417630  42.3300220   6.2733020
  64.5605740  43.1732950   6.1009260  63.2226260  42.4672260   6.0439800
  66.4781530  40.0616400   7.6570860  66.5977740  39.4657540   8.3965700
  67.3375530  40.0986090   7.2372160  68.8169430  40.6153590   6.2333370
  68.2904650  41.1396210   5.6298510  69.1600770  41.2480980   6.8643100
  61.9925050  48.6353230   7.3890750  61.4546140  49.3599290   7.0699450
  62.2459010  48.1583570   6.5988090  63.2450300  36.6037750   8.9146680
  63.8349990  36.2953600   9.6024500  62.4270540  36.1317500   9.0706580
  68.0643730  36.2203560   9.1479700  67.3759250  35.5585100   9.0829690
  68.7849750  35.7741830   9.5928160  64.8487260  49.8704440   7.6477400
  64.7745960  50.7739580   7.9549770  63.9466100  49.5516340   7.6199470
  56.7404760  48.0649620   3.6892650  56.3035750  48.2450420   4.5216800
  57.3082440  48.8224240   3.5474370  72.3766940  47.5666620   7.9769960
  71.7768930  47.6259180   7.2333880  72.5060840  46.6271600   8.1066810
  71.0618580  44.2918600   6.0746120  70.2478420  44.7215760   6.3371910
  71.4692780  44.9037010   5.4615170  57.6105120  40.9622420   4.5884870
  57.9778160  40.8749820   5.4680890  57.0415940  40.1988970   4.4891730
  72.4108980  39.4306800   7.6015340  72.1795070  39.2019550   6.7013290
  72.6713530  40.3506350   7.5560230  57.1621120  37.8731510   8.4943290
  56.2677170  37.8398270   8.8337000  57.7018670  38.0718300   9.2594540
  70.8497050  34.6563230  10.3795040  71.7267230  34.6646630  10.7629040
  70.8617890  33.9194070   9.7687390  72.4750040  38.5932640   4.7902610
  71.5252750  38.5596180   4.9047600  72.6563050  39.5032750   4.5552380
  57.6660830  32.1479840   2.8426510  58.3137020  31.5977220   2.4021670
  58.0862670  32.4022990   3.6642320  71.5613170  32.3421200   6.1996150
  72.1985390  32.9555340   6.5655340  71.7088060  32.3781860   5.2545380
  57.4192830  32.3035510   5.5851830  57.0707650  32.7599330   6.3510010
  57.0880530  31.4092640   5.6674260  59.0257200  45.4755110   9.7505020
  58.9826830  45.1048020  10.6319480  59.1568210  46.4132680   9.8906840
  62.7263230  47.0314700   5.3514740  62.4854590  47.2989260   4.4645260
  63.6665870  47.2020430   5.4065600  64.9317650  33.4947390   9.1071250
  64.8706540  34.0869220   9.8566660  65.8718030  33.3873350   8.9621510
  67.5692210  33.1517450   8.7463540  68.1832620  33.4696740   8.0844620
  68.1141770  32.6666040   9.3659400  73.9867390  49.0509080   6.1525380
  73.4925670  49.4477950   5.4352510  73.3780680  48.4258290   6.5462660
  58.0913470  31.8311710   8.8602600  58.6396460  31.6499760   8.0968710
  58.1568780  31.0405820   9.3958910  58.8645230  48.4217360   6.8702800
  58.2705550  48.2902060   7.6092840  58.8569070  47.5855500   6.4044900
  68.3100250  31.7149590   5.0732830  67.4360090  32.0484700   4.8705760
  68.2011000  31.2422770   5.8984700  69.2172230  33.9220460   6.4574550
  68.8885590  33.1072220   6.0776280  70.1654530  33.8790270   6.3340240
  71.6706840  49.6932500   3.4312120  71.2109810  50.4448310   3.0570140
  71.0419300  48.9738970   3.3726920  58.4957460  45.7875740   5.8210840
  57.7691520  45.1681030   5.7536790  58.5566610  46.1816350   4.9508920
  62.1002560  48.0020740   2.6060250  62.6167580  47.3908100   2.0808510
  62.7499940  48.5049520   3.0971260  64.8398060  48.8929230   3.4329230
  65.1275870  48.6383530   2.5562240  65.3521280  48.3406590   4.0234800
  66.0575070  32.6319430   4.0125740  65.2746860  33.1064930   4.2922500
  65.7638000  31.7274260   3.9038920  64.9070420  49.8145330  10.7997430
  65.8337730  49.5789600  10.8433390  64.8920850  50.6417330  10.3183460
  62.0934030  32.4790080  10.5639310  61.8118300  32.9823680   9.8000130
  62.4753730  31.6811830  10.1981440  68.6949490  31.8943660  11.1419780
  68.5814940  32.2138270  12.0371300  69.5119230  32.2956170  10.8457060
  71.4747980  49.0415190  10.6238470  72.2673300  48.5464420  10.4164430
  71.7681130  49.7205330  11.2314080  67.6007640  21.1392640  56.6028480
  67.5201690  20.2247250  56.3320190  67.1872060  21.6359710  55.8968190
  69.7533110  27.3231850  57.2636880  69.2914640  26.5519090  57.5924050
  70.5658660  27.3497920  57.7689330  58.1583460  18.1893360  53.1455900
  57.2700160  18.5309330  53.0435780  58.4424650  17.9893680  52.2536730
  65.9796420  29.6089860  56.8840870  65.3607860  30.0647360  56.3135310
  66.8348200  29.7641320  56.4830570  60.3344850  16.7724860  54.1794280
  60.4411600  17.6728590  54.4863040  59.4237210  16.7242830  53.8888930
  69.9863960  15.8949670  55.6505180  70.8073580  15.4046240  55.6930660
  70.0198040  16.4847330  56.4037020  66.8459770  24.4929100  54.2772780
  66.2277040  24.9578550  53.7135500  67.3583020  25.1856580  54.6942290
  56.2142970  25.1785630  51.6512410  55.8370950  25.6672730  50.9197310
  56.4716040  25.8510910  52.2818940  63.8231900  13.5802020  57.1097920
  64.1306880  13.0248910  56.3933420  62.8932600  13.7146480  56.9270910
  70.6692380  26.0185530  54.4895550  70.5588710  25.0759860  54.6144970
  70.6660630  26.3801170  55.3758310  66.2112660  21.6450850  53.8458040
  65.2841940  21.5788230  54.0746510  66.3637480  22.5830980  53.7313280
  66.1981740  17.9167850  50.8425200  65.2585410  18.0781810  50.9277660
  66.5165000  18.6353530  50.2961190  70.2409950  23.2071150  54.3493290
  69.6222370  22.8690700  53.7019590  70.2234400  22.5630910  55.0572480
  61.8169300  22.1715590  56.6277770  61.4126300  21.4592840  56.1323670
  61.9032420  21.8268830  57.5165810  68.4174650  22.4457960  51.3566040
  68.8567930  21.6080390  51.2103860  69.1303070  23.0787360  51.4430180
  66.5270030  27.3854030  55.3247280  66.9665940  28.1278360  54.9102670
  66.4656920  27.6280600  56.2486240  71.9991790  13.7000770  49.6707080
  71.6864450  13.7927600  50.5706150  72.7604260  14.2781800  49.6204510
  58.5173930  21.0660570  54.1284420  58.3971530  21.7922660  53.5165690
  58.2074820  20.2963480  53.6512330  57.4006930  25.9375900  56.3459240
  56.9935010  26.0790490  55.4912840  58.2919940  25.6536060  56.1430450
  69.1940210  30.3723150  52.6810290  69.0341350  30.0826090  53.5792120
  69.0286920  29.5963280  52.1455520  61.6728590  30.1521680  54.4581910
  61.4971070  29.2357220  54.2449710  60.8184330  30.5108970  54.6979710
  68.8966340  27.8810710  51.2408290  68.2031500  27.8788000  50.5810570
  69.6389200  27.4570030  50.8102460  68.4616270  29.5073420  55.3156780
  68.9173220  28.7262800  55.6295400  68.8008790  30.2180240  55.8597960
  60.9837590  14.4095640  57.5108090  60.5405740  15.1905180  57.1792610
  61.5422580  14.7325530  58.2179030  64.0996410  14.0306340  52.3913920
  63.4750590  14.0266210  53.1167230  64.0126530  13.1637300  51.9949890
  60.7751810  19.5329210  55.2389340  60.5492730  19.3166380  56.1435960
  59.9944340  19.9657670  54.8935310  68.0049570  19.5392580  53.8379990
  67.4058460  20.2628380  53.6543610  68.5529180  19.4769360  53.0556440
  66.6114440  18.1756120  55.8683270  67.0044010  18.4928320  55.0551960
  66.9731290  17.2968000  55.9827790  55.8348840  18.7077040  49.3016190
  55.7523510  19.6507800  49.4431180  55.4831900  18.5651950  48.4228540
  63.6346970  17.4416070  58.3686540  63.6383030  17.0006020  57.5191080
  64.5298090  17.7633400  58.4758360  59.4849350  17.3242560  57.3280750
  59.1449400  17.8017790  58.0847800  58.7226670  16.8707680  56.9681850
  63.6967120  18.4428150  51.3593300  63.8179940  18.4014630  52.3079120
  63.3115630  19.3052300  51.2040030  62.7088620  20.7529290  50.7576600
  62.1405520  20.3047540  50.1312510  63.4177620  21.1122070  50.2241750
  56.7995430  16.2461540  56.2445420  56.5142350  15.8817210  57.0824040
  56.7374290  15.5142000  55.6308560  60.2536100  24.7487480  53.0303010
  59.4798360  24.2085100  52.8701730  60.9830730  24.2294090  52.6920770
  66.4734020  15.1390800  52.9658790  65.6598630  14.6403970  52.8904100
  66.2795970  15.9789050  52.5495140  69.1882410  19.5110450  51.2620950
  70.0762030  19.8227680  51.0872290  69.1587500  18.6382700  50.8701530
  60.2973500  24.4167860  56.6681820  60.8152170  23.6136120  56.6138710
  59.8457520  24.3547000  57.5098650  65.1843000  25.6834140  51.9409120
  65.5258700  26.4276370  51.4452440  64.3555710  25.9965260  52.3033950
  71.4596680  20.8222290  50.7300810  71.3760400  21.2536510  49.8797250
  72.1790870  21.2820640  51.1627630  72.4883930  27.6764550  53.4582940
  71.8460090  27.0220170  53.7326660  72.1014590  28.0819640  52.6823610
  68.0670410  25.0049980  57.3054630  68.4194230  24.4078110  56.6456000
  67.1832740  24.6794210  57.4762880  64.1533690  25.7647670  54.7125040
  64.8404820  26.3116880  55.0932630  63.3666110  26.3088400  54.7474650
  56.2926090  21.3820490  50.2042120  57.1620940  21.6645290  50.4878040
  55.8016410  22.1956360  50.0890930  63.4560900  22.7693700  54.3250400
  63.9123680  23.5798950  54.5510590  63.1049110  22.4516840  55.1568890
  59.3572680  13.1131350  54.7972920  59.2287310  13.1049250  55.7457840
  58.5334700  13.4514440  54.4463930  70.8781310  26.5681010  49.9959290
  70.6518890  25.8511450  50.5883930  70.4877510  26.3193450  49.1581040
  56.6597340  30.5947870  50.7703750  57.0194980  31.1937210  50.1161020
  56.5189680  31.1407760  51.5438780  70.4597560  24.4852950  51.6573450
  70.1719260  24.9465640  52.4451330  71.2549730  24.0250720  51.9257670
  62.6765960  27.9779070  51.5877420  62.6676060  28.7108760  50.9721930
  61.7564320  27.7310650  51.6804380  58.2772600  23.1993960  52.3324180
  57.6700550  23.9392860  52.3419480  58.7521950  23.2893320  51.5062380
  71.2167420  16.3201720  52.8168630  70.5880580  16.4247390  52.1026860
  70.7219340  16.5398500  53.6062510  65.6625560  28.0407310  50.2502610
  65.7637540  27.8371300  49.3204590  64.7627300  27.7865590  50.4550390
  63.1851450  18.5987670  54.2326510  62.4767600  19.0674010  54.6740120
  63.4695930  17.9409680  54.8671700  67.2166880  15.3238330  55.6722300
  67.0934660  15.3424460  54.7231810  68.1651440  15.3717270  55.7920700
  64.3043670  30.5593630  54.9450280  64.5585170  30.5215020  54.0229650
  63.3556150  30.4326960  54.9378530  61.3886470  16.9072750  51.6077220
  62.2377000  17.3442900  51.5417410  61.0217740  17.2193010  52.4349280
  70.3096250  21.4785510  56.5208790  69.3686390  21.4935740  56.6956480
  70.6240320  20.6921470  56.9669090  60.2877890  23.1605110  50.0812750
  61.0541160  23.0486470  50.6438180  60.3652580  22.4643080  49.4289520
  58.9824650  20.5930180  50.7645640  59.0628240  19.6457690  50.8763040
  59.8744400  20.9237060  50.8706300  59.7839360  30.7425570  57.8680180
  60.5201840  30.1941030  58.1388750  60.1680280  31.6081580  57.7286170
  56.6684840  26.8099140  53.7421690  55.7424620  27.0520280  53.7327100
  57.1341270  27.6373400  53.6206440  62.8941670  29.9155880  49.6905750
  63.6870280  30.2044710  49.2387540  62.3746020  29.4848050  49.0118230
  71.9471840  29.1426010  51.1142490  71.6613350  28.7291150  50.2996670
  71.7491390  30.0713720  50.9943010  63.4119070  25.1359290  49.5548100
  63.3069710  24.5211640  50.2809480  63.2443290  24.6125180  48.7711110
  66.6521800  24.1979320  50.1590090  66.1031900  24.6448620  50.8032830
  67.2741060  23.6928570  50.6827760  62.3196920  23.1570240  52.0555390
  62.7413340  22.9910110  52.8986780  62.4447760  22.3470470  51.5610530
  64.8324560  22.1807850  49.3032490  65.3530220  21.4656870  48.9373640
  65.4792960  22.8193720  49.6033000  61.2155820  19.2303470  49.0013550
  61.0144880  18.3670830  49.3626890  61.0447870  19.1436830  48.0635150
  68.6944130  14.0411700  51.5300430  68.9746420  13.1979600  51.8859850
  67.9209860  14.2734810  52.0439180  60.0138620  16.3304090  48.9891430
  60.3164520  16.3371520  48.0810580  60.7533210  15.9801950  49.4859090
  63.2323550  15.2738710  49.9747630  62.8845550  14.5962700  49.3950080
  63.4336320  14.8128220  50.7891020  65.3972590  30.2619460  51.5934230
  66.2923380  30.6004430  51.6152990  65.4290220  29.5398870  50.9658510
  59.0368750  25.6346510  49.8221230  59.4743620  26.1776180  50.4778810
  59.5216480  24.8093460  49.8317570  56.2514550  28.4235540  57.2741490
  56.5817560  27.5556600  57.0420130  56.6805550  28.6294060  58.1046450
  60.8476470  26.7544550  54.9343460  60.5472010  26.6309520  55.8347370
  60.7413960  25.8953140  54.5259190  73.6168390  26.5340950  49.6370140
  72.7861350  26.6017600  50.1077370  73.7940220  27.4245070  49.3337000
  73.0724850  23.2788430  52.1404340  73.8343760  23.8485080  52.2464030
  73.0879220  22.7115630  52.9112650  56.5729190  21.8026360  56.3712000
  55.9178030  21.5338000  55.7271700  57.4107140  21.6930840  55.9213980
  74.0784820  24.1338530  56.9846270  74.4493650  23.3505850  56.5782240
  74.7186750  24.8227630  56.8063570  73.1244020  23.5722800  49.2976860
  73.3992860  24.4801680  49.1696080  72.9354760  23.5085330  50.2338850
  69.5219630  16.5967650  50.5930490  69.9404510  16.4098630  49.7527150
  69.2155690  15.7446700  50.9033420  73.0209360  21.5091790  54.2906290
  72.6452960  20.7419720  53.8587580  72.2912480  21.8914490  54.7781220
  55.7867270  19.0125290  52.3137330  54.8831350  19.2755490  52.1388990
  56.2707890  19.2836460  51.5337290  72.2960320  19.7349280  57.5913530
  72.8197800  19.2411930  56.9603700  72.8819740  19.8699640  58.3361100
  58.3294480  18.0690830  50.2231710  59.0386180  17.6474050  49.7378990
  57.6134420  18.1366060  49.5915060  57.9768640  14.1230160  49.2634360
  58.6996770  14.6639100  49.5815580  58.2493160  13.8493580  48.3875900
  71.7860290  18.9922630  53.5305940  72.2819410  18.7593500  54.3154820
  71.5876360  18.1534470  53.1143580  73.2147450  17.6283580  56.0643620
  73.1046730  17.4739620  57.0025890  73.9755040  17.1004520  55.8219030
  74.1037720  15.4591500  49.3049760  75.0287030  15.3272680  49.0968050
  74.0813510  15.5384320  50.2586210  74.1776210  16.2302160  51.9306470
  73.3827710  16.1647280  52.4599380  74.3819490  17.1652800  51.9191820
  71.1194630  30.2693710  55.9244860  71.7153700  29.9478280  55.2479280
  71.3772780  29.7965530  56.7158130  70.6096140  14.5599040  58.3805300
  71.0504230  14.5044140  57.5326900  70.3403730  15.4757050  58.4515480
  72.4734710  14.1914280  56.3914120  72.4123110  13.2475500  56.2445140
  73.2526740  14.2994370  56.9367580  56.7787460  30.3306640  55.3538070
  56.6109500  29.6977320  56.0519960  55.9121970  30.5366040  55.0032260
  57.4015480  14.1623420  52.8569930  58.1594840  14.2752300  52.2833960
  56.9392650  14.9992620  52.8113360  63.9429290  16.2762690  55.8472240
  63.1303800  15.9019580  55.5068120  64.4470930  15.5207770  56.1493430
  68.4454270  12.9405140  57.0855310  69.0483640  13.5125350  57.5603830
  67.7047260  13.5044580  56.8629210  71.5888870  13.3426700  52.3595590
  71.7839500  14.2410150  52.6263020  70.8018740  13.1113780  52.8528540
  58.3850160  29.0239870  52.7988210  57.8597780  29.4047900  52.0950170
  58.3094740  29.6490640  53.5197920  59.7740630  14.6887470  51.3971900
  60.3033390  13.9017270  51.2679850  60.4068950  15.3678660  51.6307430
  61.9678470  14.4262610  54.4517290  61.3381210  13.7249920  54.6187420
  61.4283610  15.1866740  54.2350450  73.1415480  30.5827410  54.1202150
  73.3167670  29.8965150  53.4763070  72.4437050  31.1074460  53.7278820
  60.9843130  30.9722250  51.6737460  61.7161950  30.6881530  51.1261350
  61.2436800  30.7335530  52.5636840  60.1457920  27.0886980  51.6783790
  59.5166800  27.5572080  52.2269620  60.2605750  26.2436200  52.1129980
  67.6007640  21.1392640  37.8284990  67.5201690  20.2247250  37.5576700
  67.1872060  21.6359710  37.1224700  65.7325680  22.9171660  39.7094260
  64.9567780  22.4372100  39.9992830  66.3838610  22.2377310  39.5350420
  59.7491510  23.2291470  40.5870020  58.9176390  22.9740180  40.9866530
  60.3572490  23.3002240  41.3227940  69.7533110  27.3231850  38.4893390
  69.2914640  26.5519090  38.8180560  70.5658660  27.3497920  38.9945840
  59.7292770  27.2631560  40.7828040  60.0320810  26.3729300  40.6038260
  60.4736360  27.8201780  40.5550290  58.1583460  18.1893360  34.3712410
  57.2700160  18.5309330  34.2692290  58.4424650  17.9893680  33.4793240
  56.1216470  20.7899010  40.2552110  56.6932580  20.0221210  40.2555750
  56.1218010  21.0887770  39.3458720  65.9796420  29.6089860  38.1097380
  65.3607860  30.0647360  37.5391820  66.8348200  29.7641320  37.7087080
  65.1734670  25.5928850  39.7164420  65.1042950  24.6518790  39.5553550
  65.9354530  25.6830260  40.2886990  57.3641340  16.1983370  42.0421040
  57.1844180  15.3009120  42.3223800  56.9621420  16.7455240  42.7167990
  66.2039840  18.3999230  39.9433350  66.5804660  17.5271110  39.8307020
  66.1059350  18.7357930  39.0523790  60.3344850  16.7724860  35.4050790
  60.4411600  17.6728590  35.7119550  59.4237210  16.7242830  35.1145440
  69.9863960  15.8949670  36.8761690  70.8073580  15.4046240  36.9187170
  70.0198040  16.4847330  37.6293530  57.9828010  18.6943870  40.6503380
  58.6638120  18.9582240  41.2690780  57.6676060  17.8544740  40.9841390
  62.1752580  19.7411230  39.7375970  62.6830800  20.2392200  40.3780990
  62.7065820  18.9646430  39.5615330  74.2763510  17.9116420  43.4405320
  73.5715680  18.2998130  42.9220430  74.5421430  18.6066710  44.0426250
  60.4588680  14.3809790  44.0039390  60.4607120  14.8982180  43.1985290
  59.6292990  13.9039970  43.9809320  66.8459770  24.4929100  35.5029290
  66.2277040  24.9578550  34.9392010  67.3583020  25.1856580  35.9198800
  61.7091530  24.0204970  42.1812890  61.3760910  24.6473890  42.8233960
  61.8858210  24.5466850  41.4014560  70.2225440  17.8350050  39.6489230
  69.5181010  18.1234940  40.2292340  70.5837600  18.6450160  39.2888790
  60.1404010  16.0919750  42.0109840  60.4820820  16.9361800  41.7163710
  59.2019820  16.2403490  42.1275180  60.9210630  25.9885770  43.9962070
  61.5384630  26.6636850  43.7146520  60.0603750  26.3973750  43.9049570
  56.2142970  25.1785630  32.8768920  55.8370950  25.6672730  32.1453820
  56.4716040  25.8510910  33.5075450  71.8388220  27.4525180  41.9116710
  71.1551740  28.1224290  41.9033380  72.3782510  27.6505830  41.1461570
  73.2912360  17.2804840  40.0398440  72.3437270  17.3143820  40.1713870
  73.6162350  18.0943790  40.4247800  63.8231900  13.5802020  38.3354430
  64.1306880  13.0248910  37.6189930  62.8932600  13.7146480  38.1527420
  69.3746960  29.2969310  40.6261890  69.3874120  28.8931600  39.7584150
  68.8222180  30.0716600  40.5223320  70.6692380  26.0185530  35.7152060
  70.5588710  25.0759860  35.8401480  70.6660630  26.3801170  36.6014820
  68.7732400  24.1999150  41.9544500  69.1901190  23.9859260  41.1197960
  69.4972220  24.4571940  42.5253120  66.2112660  21.6450850  35.0714550
  65.2841940  21.5788230  35.3003020  66.3637480  22.5830980  34.9569790
  66.1981740  17.9167850  32.0681710  65.2585410  18.0781810  32.1534170
  66.5165000  18.6353530  31.5217700  72.7194500  22.5986370  42.0460740
  71.8913130  22.6679460  41.5710870  73.3144980  23.1840680  41.5776570
  70.2409950  23.2071150  35.5749800  69.6222370  22.8690700  34.9276100
  70.2234400  22.5630910  36.2828990  69.6836510  19.3855690  42.9915610
  69.2707690  20.2109400  43.2455600  68.9512460  18.8000730  42.7991970
  61.8169300  22.1715590  37.8534280  61.4126300  21.4592840  37.3580180
  61.9032420  21.8268830  38.7422320  62.2851000  25.8583150  40.0173490
  61.9879290  25.2528620  39.3381270  63.2350820  25.8960460  39.9062850
  60.5297920  18.9458800  41.6333320  61.0812510  19.0554140  40.8586570
  61.0441430  19.3196400  42.3488550  70.3736610  29.4315020  43.6796590
  69.8967170  30.2387210  43.4869200  69.6898400  28.7793350  43.8322800
  61.3769430  25.5964840  46.6681290  60.4797960  25.8204810  46.9154690
  61.4022300  25.7199780  45.7192690  68.4174650  22.4457960  32.5822550
  68.8567930  21.6080390  32.4360370  69.1303070  23.0787360  32.6686690
  60.2040650  22.4678160  45.2438660  60.0648420  23.3400960  45.6126060
  59.3222010  22.1250970  45.0986600  66.5270030  27.3854030  36.5503790
  66.9665940  28.1278360  36.1359180  66.4656920  27.6280600  37.4742750
  62.0021000  28.4099860  47.4523810  61.9736430  28.8142810  46.5852240
  61.8385970  27.4810220  47.2895410  71.9991790  13.7000770  30.8963590
  71.6864450  13.7927600  31.7962660  72.7604260  14.2781800  30.8461020
  58.5173930  21.0660570  35.3540930  58.3971530  21.7922660  34.7422200
  58.2074820  20.2963480  34.8768840  73.9535820  29.1926960  48.7487980
  74.4295540  29.6709850  49.4277060  74.5742980  29.1244450  48.0233480
  56.1559300  24.2375710  41.1609570  56.2339720  24.3724480  40.2165290
  56.7700980  23.5291600  41.3537690  57.4006930  25.9375900  37.5715750
  56.9935010  26.0790490  36.7169350  58.2919940  25.6536060  37.3686960
  73.3569070  26.3839810  45.9087990  73.4832130  26.1451690  44.9905170
  73.3990450  25.5524350  46.3810070  67.2185810  30.0867810  44.4782800
  67.7330480  29.9975820  45.2805230  66.3754890  30.4327510  44.7710710
  69.1940210  30.3723150  33.9066800  69.0341350  30.0826090  34.8048630
  69.0286920  29.5963280  33.3712030  61.6728590  30.1521680  35.6838420
  61.4971070  29.2357220  35.4706220  60.8184330  30.5108970  35.9236220
  68.8966340  27.8810710  32.4664800  68.2031500  27.8788000  31.8067080
  69.6389200  27.4570030  32.0358970  68.4616270  29.5073420  36.5413290
  68.9173220  28.7262800  36.8551910  68.8008790  30.2180240  37.0854470
  73.2093080  18.4372270  46.8737730  72.5937350  18.9451940  46.3453190
  72.8889500  17.5370600  46.8163670  56.2118820  25.2789880  43.7004030
  56.3749860  24.8095240  42.8823400  56.6771270  24.7713440  44.3652870
  60.9837590  14.4095640  38.7364600  60.5405740  15.1905180  38.4049120
  61.5422580  14.7325530  39.4435540  65.2707400  17.2764160  44.3399920
  64.8086770  17.4847180  45.1519860  64.8685510  16.4623510  44.0370590
  70.2711910  18.4973110  45.4696580  69.4205500  18.1978860  45.7905650
  70.1113700  18.7415120  44.5580400  67.3661620  19.9974860  47.5695370
  67.6915030  19.1638610  47.2297600  68.1541950  20.5203380  47.7173700
  64.0996410  14.0306340  33.6170430  63.4750590  14.0266210  34.3423740
  64.0126530  13.1637300  33.2206400  63.0213490  14.9542970  40.5954200
  63.3185820  15.8605800  40.5146220  63.5699050  14.4661750  39.9813770
  60.7751810  19.5329210  36.4645850  60.5492730  19.3166380  37.3692470
  59.9944340  19.9657670  36.1191820  68.0049570  19.5392580  35.0636500
  67.4058460  20.2628380  34.8800120  68.5529180  19.4769360  34.2812950
  63.2151020  20.4314790  47.1306120  63.1194620  19.4909520  46.9806520
  64.0583000  20.6529860  46.7354190  66.6114440  18.1756120  37.0939780
  67.0044010  18.4928320  36.2808470  66.9731290  17.2968000  37.2084300
  58.3461560  16.8428460  45.2839900  57.9524950  17.6903670  45.4912680
  57.6579960  16.2054830  45.4748540  64.9206610  16.9263430  48.3536640
  64.2304930  16.7335630  48.9882730  65.6638910  17.2098070  48.8860940
  55.6478610  14.7656920  39.3169980  55.3591660  15.3359780  40.0294960
  56.3924370  14.2861370  39.6801210  55.8348840  18.7077040  30.5272700
  55.7523510  19.6507800  30.6687690  55.4831900  18.5651950  29.6485050
  67.1969580  20.7661870  41.1890560  66.4650700  21.2748680  41.5380660
  66.7993920  19.9491850  40.8879340  63.6346970  17.4416070  39.5943050
  63.6383030  17.0006020  38.7447590  64.5298090  17.7633400  39.7014870
  59.4849350  17.3242560  38.5537260  59.1449400  17.8017790  39.3104310
  58.7226670  16.8707680  38.1938360  63.6967120  18.4428150  32.5849810
  63.8179940  18.4014630  33.5335630  63.3115630  19.3052300  32.4296540
  67.6595490  16.2195550  40.6013500  67.6768230  16.6704200  41.4455350
  67.4111070  15.3201190  40.8146940  62.7088620  20.7529290  31.9833110
  62.1405520  20.3047540  31.3569020  63.4177620  21.1122070  31.4498260
  71.0866240  13.6327730  46.4399880  71.4112010  12.9017390  46.9657860
  71.1222750  13.3141370  45.5380870  57.7857800  24.6541310  45.8599840
  57.4012590  24.0134980  46.4582800  58.0969990  25.3577430  46.4294570
  63.9354940  21.5017850  41.3408460  64.3025070  21.0276420  42.0869800
  63.7460000  22.3759420  41.6816800  56.7995430  16.2461540  37.4701930
  56.5142350  15.8817210  38.3080550  56.7374290  15.5142000  36.8565070
  61.7254310  20.5426490  43.6592670  61.4211380  21.4218470  43.8843030
  62.6800770  20.6026280  43.6950110  60.2536100  24.7487480  34.2559520
  59.4798360  24.2085100  34.0958240  60.9830730  24.2294090  33.9177280
  71.0124080  23.7452840  40.0485910  71.7323200  24.2408130  39.6582020
  70.8105900  23.0670730  39.4039780  66.4734020  15.1390800  34.1915300
  65.6598630  14.6403970  34.1160610  66.2795970  15.9789050  33.7751650
  66.3942880  23.8161900  45.9354910  66.3280190  22.8957570  45.6812500
  65.7648020  23.9137340  46.6499550  69.1882410  19.5110450  32.4877460
  70.0762030  19.8227680  32.3128800  69.1587500  18.6382700  32.0958040
  60.2973500  24.4167860  37.8938330  60.8152170  23.6136120  37.8395220
  59.8457520  24.3547000  38.7355160  65.1843000  25.6834140  33.1665630
  65.5258700  26.4276370  32.6708950  64.3555710  25.9965260  33.5290460
  57.7818040  21.3829230  44.8064030  57.4232980  22.0483080  45.3937370
  57.4872600  20.5512780  45.1776650  60.9831160  21.8413470  47.6903580
  60.6831300  21.9870650  46.7931400  61.7542400  21.2818760  47.5976970
  66.3259610  26.6382470  45.6858710  66.3404150  25.7063430  45.4677620
  65.6184710  26.7242230  46.3248480  71.4596680  20.8222290  31.9557320
  71.3760400  21.2536510  31.1053760  72.1790870  21.2820640  32.3884140
  72.5370820  23.2789810  45.0327290  71.8119010  23.8718590  44.8356680
  73.0646280  23.2713350  44.2340660  72.4883930  27.6764550  34.6839450
  71.8460090  27.0220170  34.9583170  72.1014590  28.0819640  33.9080120
  68.0670410  25.0049980  38.5311140  68.4194230  24.4078110  37.8712510
  67.1832740  24.6794210  38.7019390  64.1533690  25.7647670  35.9381550
  64.8404820  26.3116880  36.3189140  63.3666110  26.3088400  35.9731160
  56.2926090  21.3820490  31.4298630  57.1620940  21.6645290  31.7134550
  55.8016410  22.1956360  31.3147440  63.4560900  22.7693700  35.5506910
  63.9123680  23.5798950  35.7767100  63.1049110  22.4516840  36.3825400
  65.7593510  28.2800040  42.7799210  66.4035730  28.4859420  43.4572630
  66.1222950  27.5188440  42.3270060  59.3572680  13.1131350  36.0229430
  59.2287310  13.1049250  36.9714350  58.5334700  13.4514440  35.6720440
  67.0325590  26.2832390  41.4976660  67.6747820  25.5825550  41.6108830
  67.5574940  27.0630830  41.3173550  70.8781310  26.5681010  31.2215800
  70.6518890  25.8511450  31.8140440  70.4877510  26.3193450  30.3837550
  68.8063210  27.0827290  44.7012720  69.1419450  27.6693980  45.3790640
  67.8863550  26.9520000  44.9310510  56.6597340  30.5947870  31.9960260
  57.0194980  31.1937210  31.3417530  56.5189680  31.1407760  32.7695290
  56.3566610  14.8722470  45.4836130  55.6425130  15.0719390  46.0888740
  56.7761650  14.0962040  45.8550930  70.4597560  24.4852950  32.8829960
  70.1719260  24.9465640  33.6707840  71.2549730  24.0250720  33.1514180
  56.6439200  28.8602730  46.4702660  56.7530320  27.9197470  46.3298050
  55.9919760  29.1257480  45.8216390  64.6351790  27.1318620  47.8700780
  64.3148660  26.4127860  48.4146470  63.9610150  27.8073690  47.9436840
  62.6765960  27.9779070  32.8133930  62.6676060  28.7108760  32.1978440
  61.7564320  27.7310650  32.9060890  58.2772600  23.1993960  33.5580690
  57.6700550  23.9392860  33.5675990  58.7521950  23.2893320  32.7318890
  67.8505390  17.3644780  43.2337580  68.2186210  16.5439990  43.5617150
  66.9903590  17.4246670  43.6493230  71.2167420  16.3201720  34.0425140
  70.5880580  16.4247390  33.3283370  70.7219340  16.5398500  34.8319020
  65.6625560  28.0407310  31.4759120  65.7637540  27.8371300  30.5461100
  64.7627300  27.7865590  31.6806900  63.1851450  18.5987670  35.4583020
  62.4767600  19.0674010  35.8996630  63.4695930  17.9409680  36.0928210
  64.8107380  20.0184370  43.4575550  65.3092630  20.4930190  44.1227400
  64.9530330  19.0947890  43.6645580  67.2166880  15.3238330  36.8978810
  67.0934660  15.3424460  35.9488320  68.1651440  15.3717270  37.0177210
  64.3043670  30.5593630  36.1706790  64.5585170  30.5215020  35.2486160
  63.3556150  30.4326960  36.1635040  61.3886470  16.9072750  32.8333730
  62.2377000  17.3442900  32.7673920  61.0217740  17.2193010  33.6605790
  72.0174240  16.2352330  44.3003940  71.5147840  16.9757730  44.6397750
  72.8330900  16.6236330  43.9840730  70.3096250  21.4785510  37.7465300
  69.3686390  21.4935740  37.9212990  70.6240320  20.6921470  38.1925600
  60.2877890  23.1605110  31.3069260  61.0541160  23.0486470  31.8694690
  60.3652580  22.4643080  30.6546030  58.9824650  20.5930180  31.9902150
  59.0628240  19.6457690  32.1019550  59.8744400  20.9237060  32.0962810
  72.3121830  28.6494360  39.4219560  72.4369250  29.4725530  39.8943370
  73.1787390  28.4385090  39.0743710  59.7839360  30.7425570  39.0936690
  60.5201840  30.1941030  39.3645260  60.1680280  31.6081580  38.9542680
  56.6684840  26.8099140  34.9678200  55.7424620  27.0520280  34.9583610
  57.1341270  27.6373400  34.8462950  58.7897640  29.9271640  48.2822270
  59.5910370  30.2483690  48.6957670  58.2749460  29.5667220  49.0042180
  62.8941670  29.9155880  30.9162260  63.6870280  30.2044710  30.4644050
  62.3746020  29.4848050  30.2374740  67.6262270  26.0351510  48.2297680
  67.0200430  26.0583110  47.4893430  67.3216380  25.3034550  48.7664930
  69.0562640  29.7631800  46.8407090  70.0084390  29.6789820  46.7907330
  68.9090860  30.4273510  47.5140880  71.9471840  29.1426010  32.3399000
  71.6613350  28.7291150  31.5253180  71.7491390  30.0713720  32.2199520
  56.5095450  22.4145100  47.2258320  57.0134470  21.8352380  47.7974550
  55.7702870  22.6985330  47.7634690  63.4119070  25.1359290  30.7804610
  63.3069710  24.5211640  31.5065990  63.2443290  24.6125180  29.9967620
  63.5633390  23.8216090  46.7593840  62.7979060  24.3901090  46.6748510
  63.7449350  23.5292300  45.8662070  66.6521800  24.1979320  31.3846600
  66.1031900  24.6448620  32.0289340  67.2741060  23.6928570  31.9084270
  70.7056740  25.5521420  47.3168860  71.4466210  25.8897180  46.8136320
  69.9429420  25.7213480  46.7638630  58.5418530  20.5574690  48.1208390
  58.5823870  20.2588560  49.0293620  59.3964030  20.9582300  47.9615910
  62.3196920  23.1570240  33.2811900  62.7413340  22.9910110  34.1243290
  62.4447760  22.3470470  32.7867040  60.4824340  19.1366790  46.0882880
  59.9520800  18.6457740  45.4606220  61.1512410  19.5650990  45.5540810
  64.8324560  22.1807850  30.5289000  65.3530220  21.4656870  30.1630150
  65.4792960  22.8193720  30.8289510  69.3802400  23.6036250  45.8524070
  69.7943420  23.7581330  46.7014490  68.4453400  23.7291470  46.0149850
  69.8524570  20.9432410  47.8563220  70.4345340  20.1884730  47.7683700
  70.0286340  21.4739850  47.0794700  60.9696640  16.1029160  46.1680170
  60.8753510  15.4849910  45.4431040  60.3894030  16.8295450  45.9410080
  63.7358080  14.6602400  43.2007560  63.2875380  14.6826660  42.3553110
  63.1023280  14.2621420  43.7977860  64.1417630  23.5556730  43.8220000
  64.5605740  24.3989460  43.6496240  63.2226260  23.6928770  43.5926780
  66.4781530  21.2872910  45.2057840  66.5977740  20.6914050  45.9452680
  67.3375530  21.3242600  44.7859140  68.8169430  21.8410100  43.7820350
  68.2904650  22.3652720  43.1785490  69.1600770  22.4737490  44.4130080
  61.2155820  19.2303470  30.2270060  61.0144880  18.3670830  30.5883400
  61.0447870  19.1436830  29.2891660  61.9925050  29.8609740  44.9377730
  61.4546140  30.5855800  44.6186430  62.2459010  29.3840080  44.1475070
  63.2450300  17.8294260  46.4633660  63.8349990  17.5210110  47.1511480
  62.4270540  17.3574010  46.6193560  68.0643730  17.4460070  46.6966680
  67.3759250  16.7841610  46.6316670  68.7849750  16.9998340  47.1415140
  68.6944130  14.0411700  32.7556940  68.9746420  13.1979600  33.1116360
  67.9209860  14.2734810  33.2695690  60.0138620  16.3304090  30.2147940
  60.3164520  16.3371520  29.3067090  60.7533210  15.9801950  30.7115600
  64.8487260  31.0960950  45.1964380  64.7745960  31.9996090  45.5036750
  63.9466100  30.7772850  45.1686450  63.2323550  15.2738710  31.2004140
  62.8845550  14.5962700  30.6206590  63.4336320  14.8128220  32.0147530
  65.3972590  30.2619460  32.8190740  66.2923380  30.6004430  32.8409500
  65.4290220  29.5398870  32.1915020  59.0368750  25.6346510  31.0477740
  59.4743620  26.1776180  31.7035320  59.5216480  24.8093460  31.0574080
  56.2514550  28.4235540  38.4998000  56.5817560  27.5556600  38.2676640
  56.6805550  28.6294060  39.3302960  60.8476470  26.7544550  36.1599970
  60.5472010  26.6309520  37.0603880  60.7413960  25.8953140  35.7515700
  56.7404760  29.2906130  41.2379630  56.3035750  29.4706930  42.0703780
  57.3082440  30.0480750  41.0961350  72.3766940  28.7923130  45.5256940
  71.7768930  28.8515690  44.7820860  72.5060840  27.8528110  45.6553790
  73.6168390  26.5340950  30.8626650  72.7861350  26.6017600  31.3333880
  73.7940220  27.4245070  30.5593510  73.0724850  23.2788430  33.3660850
  73.8343760  23.8485080  33.4720540  73.0879220  22.7115630  34.1369160
  56.5729190  21.8026360  37.5968510  55.9178030  21.5338000  36.9528210
  57.4107140  21.6930840  37.1470490  74.0784820  24.1338530  38.2102780
  74.4493650  23.3505850  37.8038750  74.7186750  24.8227630  38.0320080
  71.0618580  25.5175110  43.6233100  70.2478420  25.9472270  43.8858890
  71.4692780  26.1293520  43.0102150  73.1244020  23.5722800  30.5233370
  73.3992860  24.4801680  30.3952590  72.9354760  23.5085330  31.4595360
  69.5219630  16.5967650  31.8187000  69.9404510  16.4098630  30.9783660
  69.2155690  15.7446700  32.1289930  73.0209360  21.5091790  35.5162800
  72.6452960  20.7419720  35.0844090  72.2912480  21.8914490  36.0037730
  57.6105120  22.1878930  42.1371850  57.9778160  22.1006330  43.0167870
  57.0415940  21.4245480  42.0378710  72.4108980  20.6563310  45.1502320
  72.1795070  20.4276060  44.2500270  72.6713530  21.5762860  45.1047210
  57.1621120  19.0988020  46.0430270  56.2677170  19.0654780  46.3823980
  57.7018670  19.2974810  46.8081520  70.8497050  15.8819740  47.9282020
  71.7267230  15.8903140  48.3116020  70.8617890  15.1450580  47.3174370
  55.7867270  19.0125290  33.5393840  54.8831350  19.2755490  33.3645500
  56.2707890  19.2836460  32.7593800  72.2960320  19.7349280  38.8170040
  72.8197800  19.2411930  38.1860210  72.8819740  19.8699640  39.5617610
  72.4750040  19.8189150  42.3389590  71.5252750  19.7852690  42.4534580
  72.6563050  20.7289260  42.1039360  58.3294480  18.0690830  31.4488220
  59.0386180  17.6474050  30.9635500  57.6134420  18.1366060  30.8171570
  57.9768640  14.1230160  30.4890870  58.6996770  14.6639100  30.8072090
  58.2493160  13.8493580  29.6132410  71.7860290  18.9922630  34.7562450
  72.2819410  18.7593500  35.5411330  71.5876360  18.1534470  34.3400090
  57.6660830  13.3736350  40.3913490  58.3137020  12.8233730  39.9508650
  58.0862670  13.6279500  41.2129300  73.2147450  17.6283580  37.2900130
  73.1046730  17.4739620  38.2282400  73.9755040  17.1004520  37.0475540
  71.5613170  13.5677710  43.7483130  72.1985390  14.1811850  44.1142320
  71.7088060  13.6038370  42.8032360  74.1037720  15.4591500  30.5306270
  75.0287030  15.3272680  30.3224560  74.0813510  15.5384320  31.4842720
  74.1776210  16.2302160  33.1562980  73.3827710  16.1647280  33.6855890
  74.3819490  17.1652800  33.1448330  71.1194630  30.2693710  37.1501370
  71.7153700  29.9478280  36.4735790  71.3772780  29.7965530  37.9414640
  57.4192830  13.5292020  43.1338810  57.0707650  13.9855840  43.8996990
  57.0880530  12.6349150  43.2161240  59.0257200  26.7011620  47.2992000
  58.9826830  26.3304530  48.1806460  59.1568210  27.6389190  47.4393820
  62.7263230  28.2571210  42.9001720  62.4854590  28.5245770  42.0132240
  63.6665870  28.4276940  42.9552580  64.9317650  14.7203900  46.6558230
  64.8706540  15.3125730  47.4053640  65.8718030  14.6129860  46.5108490
  67.5692210  14.3773960  46.2950520  68.1832620  14.6953250  45.6331600
  68.1141770  13.8922550  46.9146380  73.9867390  30.2765590  43.7012360
  73.4925670  30.6734460  42.9839490  73.3780680  29.6514800  44.0949640
  58.0913470  13.0568220  46.4089580  58.6396460  12.8756270  45.6455690
  58.1568780  12.2662330  46.9445890  58.8645230  29.6473870  44.4189780
  58.2705550  29.5158570  45.1579820  58.8569070  28.8112010  43.9531880
  68.3100250  12.9406100  42.6219810  67.4360090  13.2741210  42.4192740
  68.2011000  12.4679280  43.4471680  69.2172230  15.1476970  44.0061530
  68.8885590  14.3328730  43.6263260  70.1654530  15.1046780  43.8827220
  71.6706840  30.9189010  40.9799100  71.2109810  31.6704820  40.6057120
  71.0419300  30.1995480  40.9213900  58.4957460  27.0132250  43.3697820
  57.7691520  26.3937540  43.3023770  58.5566610  27.4072860  42.4995900
  62.1002560  29.2277250  40.1547230  62.6167580  28.6164610  39.6295490
  62.7499940  29.7306030  40.6458240  64.8398060  30.1185740  40.9816210
  65.1275870  29.8640040  40.1049220  65.3521280  29.5663100  41.5721780
  66.0575070  13.8575940  41.5612720  65.2746860  14.3321440  41.8409480
  65.7638000  12.9530770  41.4525900  70.6096140  14.5599040  39.6061810
  71.0504230  14.5044140  38.7583410  70.3403730  15.4757050  39.6771990
  72.4734710  14.1914280  37.6170630  72.4123110  13.2475500  37.4701650
  73.2526740  14.2994370  38.1624090  56.7787460  30.3306640  36.5794580
  56.6109500  29.6977320  37.2776470  55.9121970  30.5366040  36.2288770
  57.4015480  14.1623420  34.0826440  58.1594840  14.2752300  33.5090470
  56.9392650  14.9992620  34.0369870  63.9429290  16.2762690  37.0728750
  63.1303800  15.9019580  36.7324630  64.4470930  15.5207770  37.3749940
  68.4454270  12.9405140  38.3111820  69.0483640  13.5125350  38.7860340
  67.7047260  13.5044580  38.0885720  71.5888870  13.3426700  33.5852100
  71.7839500  14.2410150  33.8519530  70.8018740  13.1113780  34.0785050
  58.3850160  29.0239870  34.0244720  57.8597780  29.4047900  33.3206680
  58.3094740  29.6490640  34.7454430  59.7740630  14.6887470  32.6228410
  60.3033390  13.9017270  32.4936360  60.4068950  15.3678660  32.8563940
  61.9678470  14.4262610  35.6773800  61.3381210  13.7249920  35.8443930
  61.4283610  15.1866740  35.4606960  64.9070420  31.0401840  48.3484410
  65.8337730  30.8046110  48.3920370  64.8920850  31.8673840  47.8670440
  73.1415480  30.5827410  35.3458660  73.3167670  29.8965150  34.7019580
  72.4437050  31.1074460  34.9535330  62.0934030  13.7046590  48.1126290
  61.8118300  14.2080190  47.3487110  62.4753730  12.9068340  47.7468420
  60.9843130  30.9722250  32.8993970  61.7161950  30.6881530  32.3517860
  61.2436800  30.7335530  33.7893350  60.1457920  27.0886980  32.9040300
  59.5166800  27.5572080  33.4526130  60.2605750  26.2436200  33.3386490
  68.6949490  13.1200170  48.6906760  68.5814940  13.4394780  49.5858280
  69.5119230  13.5212680  48.3944040  71.4747980  30.2671700  48.1725450
  72.2673300  29.7720930  47.9651410  71.7681130  30.9461840  48.7801060
  67.6007640  21.1392640  19.0541500  67.5201690  20.2247250  18.7833210
  67.1872060  21.6359710  18.3481210  65.7325680  22.9171660  20.9350770
  64.9567780  22.4372100  21.2249340  66.3838610  22.2377310  20.7606930
  59.7491510  23.2291470  21.8126530  58.9176390  22.9740180  22.2123040
  60.3572490  23.3002240  22.5484450  69.7533110  27.3231850  19.7149900
  69.2914640  26.5519090  20.0437070  70.5658660  27.3497920  20.2202350
  59.7292770  27.2631560  22.0084550  60.0320810  26.3729300  21.8294770
  60.4736360  27.8201780  21.7806800  58.1583460  18.1893360  15.5968920
  57.2700160  18.5309330  15.4948800  58.4424650  17.9893680  14.7049750
  56.1216470  20.7899010  21.4808620  56.6932580  20.0221210  21.4812260
  56.1218010  21.0887770  20.5715230  65.9796420  29.6089860  19.3353890
  65.3607860  30.0647360  18.7648330  66.8348200  29.7641320  18.9343590
  65.1734670  25.5928850  20.9420930  65.1042950  24.6518790  20.7810060
  65.9354530  25.6830260  21.5143500  57.3641340  16.1983370  23.2677550
  57.1844180  15.3009120  23.5480310  56.9621420  16.7455240  23.9424500
  66.2039840  18.3999230  21.1689860  66.5804660  17.5271110  21.0563530
  66.1059350  18.7357930  20.2780300  60.3344850  16.7724860  16.6307300
  60.4411600  17.6728590  16.9376060  59.4237210  16.7242830  16.3401950
  69.9863960  15.8949670  18.1018200  70.8073580  15.4046240  18.1443680
  70.0198040  16.4847330  18.8550040  57.9828010  18.6943870  21.8759890
  58.6638120  18.9582240  22.4947290  57.6676060  17.8544740  22.2097900
  62.1752580  19.7411230  20.9632480  62.6830800  20.2392200  21.6037500
  62.7065820  18.9646430  20.7871840  74.2763510  17.9116420  24.6661830
  73.5715680  18.2998130  24.1476940  74.5421430  18.6066710  25.2682760
  60.4588680  14.3809790  25.2295900  60.4607120  14.8982180  24.4241800
  59.6292990  13.9039970  25.2065830  66.8459770  24.4929100  16.7285800
  66.2277040  24.9578550  16.1648520  67.3583020  25.1856580  17.1455310
  61.7091530  24.0204970  23.4069400  61.3760910  24.6473890  24.0490470
  61.8858210  24.5466850  22.6271070  70.2225440  17.8350050  20.8745740
  69.5181010  18.1234940  21.4548850  70.5837600  18.6450160  20.5145300
  60.1404010  16.0919750  23.2366350  60.4820820  16.9361800  22.9420220
  59.2019820  16.2403490  23.3531690  60.9210630  25.9885770  25.2218580
  61.5384630  26.6636850  24.9403030  60.0603750  26.3973750  25.1306080
  56.2142970  25.1785630  14.1025430  55.8370950  25.6672730  13.3710330
  56.4716040  25.8510910  14.7331960  71.8388220  27.4525180  23.1373220
  71.1551740  28.1224290  23.1289890  72.3782510  27.6505830  22.3718080
  73.2912360  17.2804840  21.2654950  72.3437270  17.3143820  21.3970380
  73.6162350  18.0943790  21.6504310  63.8231900  13.5802020  19.5610940
  64.1306880  13.0248910  18.8446440  62.8932600  13.7146480  19.3783930
  69.3746960  29.2969310  21.8518400  69.3874120  28.8931600  20.9840660
  68.8222180  30.0716600  21.7479830  70.6692380  26.0185530  16.9408570
  70.5588710  25.0759860  17.0657990  70.6660630  26.3801170  17.8271330
  68.7732400  24.1999150  23.1801010  69.1901190  23.9859260  22.3454470
  69.4972220  24.4571940  23.7509630  66.2112660  21.6450850  16.2971060
  65.2841940  21.5788230  16.5259530  66.3637480  22.5830980  16.1826300
  66.1981740  17.9167850  13.2938220  65.2585410  18.0781810  13.3790680
  66.5165000  18.6353530  12.7474210  72.7194500  22.5986370  23.2717250
  71.8913130  22.6679460  22.7967380  73.3144980  23.1840680  22.8033080
  70.2409950  23.2071150  16.8006310  69.6222370  22.8690700  16.1532610
  70.2234400  22.5630910  17.5085500  69.6836510  19.3855690  24.2172120
  69.2707690  20.2109400  24.4712110  68.9512460  18.8000730  24.0248480
  61.8169300  22.1715590  19.0790790  61.4126300  21.4592840  18.5836690
  61.9032420  21.8268830  19.9678830  62.2851000  25.8583150  21.2430000
  61.9879290  25.2528620  20.5637780  63.2350820  25.8960460  21.1319360
  60.5297920  18.9458800  22.8589830  61.0812510  19.0554140  22.0843080
  61.0441430  19.3196400  23.5745060  70.3736610  29.4315020  24.9053100
  69.8967170  30.2387210  24.7125710  69.6898400  28.7793350  25.0579310
  61.3769430  25.5964840  27.8937800  60.4797960  25.8204810  28.1411200
  61.4022300  25.7199780  26.9449200  68.4174650  22.4457960  13.8079060
  68.8567930  21.6080390  13.6616880  69.1303070  23.0787360  13.8943200
  60.2040650  22.4678160  26.4695170  60.0648420  23.3400960  26.8382570
  59.3222010  22.1250970  26.3243110  66.5270030  27.3854030  17.7760300
  66.9665940  28.1278360  17.3615690  66.4656920  27.6280600  18.6999260
  62.0021000  28.4099860  28.6780320  61.9736430  28.8142810  27.8108750
  61.8385970  27.4810220  28.5151920  71.9991790  13.7000770  12.1220100
  71.6864450  13.7927600  13.0219170  72.7604260  14.2781800  12.0717530
  58.5173930  21.0660570  16.5797440  58.3971530  21.7922660  15.9678710
  58.2074820  20.2963480  16.1025350  73.9535820  29.1926960  29.9744490
  74.4295540  29.6709850  30.6533570  74.5742980  29.1244450  29.2489990
  56.1559300  24.2375710  22.3866080  56.2339720  24.3724480  21.4421800
  56.7700980  23.5291600  22.5794200  57.4006930  25.9375900  18.7972260
  56.9935010  26.0790490  17.9425860  58.2919940  25.6536060  18.5943470
  73.3569070  26.3839810  27.1344500  73.4832130  26.1451690  26.2161680
  73.3990450  25.5524350  27.6066580  67.2185810  30.0867810  25.7039310
  67.7330480  29.9975820  26.5061740  66.3754890  30.4327510  25.9967220
  69.1940210  30.3723150  15.1323310  69.0341350  30.0826090  16.0305140
  69.0286920  29.5963280  14.5968540  61.6728590  30.1521680  16.9094930
  61.4971070  29.2357220  16.6962730  60.8184330  30.5108970  17.1492730
  68.8966340  27.8810710  13.6921310  68.2031500  27.8788000  13.0323590
  69.6389200  27.4570030  13.2615480  68.4616270  29.5073420  17.7669800
  68.9173220  28.7262800  18.0808420  68.8008790  30.2180240  18.3110980
  73.2093080  18.4372270  28.0994240  72.5937350  18.9451940  27.5709700
  72.8889500  17.5370600  28.0420180  56.2118820  25.2789880  24.9260540
  56.3749860  24.8095240  24.1079910  56.6771270  24.7713440  25.5909380
  60.9837590  14.4095640  19.9621110  60.5405740  15.1905180  19.6305630
  61.5422580  14.7325530  20.6692050  65.2707400  17.2764160  25.5656430
  64.8086770  17.4847180  26.3776370  64.8685510  16.4623510  25.2627100
  70.2711910  18.4973110  26.6953090  69.4205500  18.1978860  27.0162160
  70.1113700  18.7415120  25.7836910  67.3661620  19.9974860  28.7951880
  67.6915030  19.1638610  28.4554110  68.1541950  20.5203380  28.9430210
  64.0996410  14.0306340  14.8426940  63.4750590  14.0266210  15.5680250
  64.0126530  13.1637300  14.4462910  63.0213490  14.9542970  21.8210710
  63.3185820  15.8605800  21.7402730  63.5699050  14.4661750  21.2070280
  60.7751810  19.5329210  17.6902360  60.5492730  19.3166380  18.5948980
  59.9944340  19.9657670  17.3448330  68.0049570  19.5392580  16.2893010
  67.4058460  20.2628380  16.1056630  68.5529180  19.4769360  15.5069460
  63.2151020  20.4314790  28.3562630  63.1194620  19.4909520  28.2063030
  64.0583000  20.6529860  27.9610700  66.6114440  18.1756120  18.3196290
  67.0044010  18.4928320  17.5064980  66.9731290  17.2968000  18.4340810
  58.3461560  16.8428460  26.5096410  57.9524950  17.6903670  26.7169190
  57.6579960  16.2054830  26.7005050  64.9206610  16.9263430  29.5793150
  64.2304930  16.7335630  30.2139240  65.6638910  17.2098070  30.1117450
  55.6478610  14.7656920  20.5426490  55.3591660  15.3359780  21.2551470
  56.3924370  14.2861370  20.9057720  55.8348840  18.7077040  11.7529210
  55.7523510  19.6507800  11.8944200  55.4831900  18.5651950  10.8741560
  67.1969580  20.7661870  22.4147070  66.4650700  21.2748680  22.7637170
  66.7993920  19.9491850  22.1135850  63.6346970  17.4416070  20.8199560
  63.6383030  17.0006020  19.9704100  64.5298090  17.7633400  20.9271380
  59.4849350  17.3242560  19.7793770  59.1449400  17.8017790  20.5360820
  58.7226670  16.8707680  19.4194870  63.6967120  18.4428150  13.8106320
  63.8179940  18.4014630  14.7592140  63.3115630  19.3052300  13.6553050
  67.6595490  16.2195550  21.8270010  67.6768230  16.6704200  22.6711860
  67.4111070  15.3201190  22.0403450  62.7088620  20.7529290  13.2089620
  62.1405520  20.3047540  12.5825530  63.4177620  21.1122070  12.6754770
  71.0866240  13.6327730  27.6656390  71.4112010  12.9017390  28.1914370
  71.1222750  13.3141370  26.7637380  57.7857800  24.6541310  27.0856350
  57.4012590  24.0134980  27.6839310  58.0969990  25.3577430  27.6551080
  63.9354940  21.5017850  22.5664970  64.3025070  21.0276420  23.3126310
  63.7460000  22.3759420  22.9073310  56.7995430  16.2461540  18.6958440
  56.5142350  15.8817210  19.5337060  56.7374290  15.5142000  18.0821580
  61.7254310  20.5426490  24.8849180  61.4211380  21.4218470  25.1099540
  62.6800770  20.6026280  24.9206620  60.2536100  24.7487480  15.4816030
  59.4798360  24.2085100  15.3214750  60.9830730  24.2294090  15.1433790
  71.0124080  23.7452840  21.2742420  71.7323200  24.2408130  20.8838530
  70.8105900  23.0670730  20.6296290  66.4734020  15.1390800  15.4171810
  65.6598630  14.6403970  15.3417120  66.2795970  15.9789050  15.0008160
  66.3942880  23.8161900  27.1611420  66.3280190  22.8957570  26.9069010
  65.7648020  23.9137340  27.8756060  69.1882410  19.5110450  13.7133970
  70.0762030  19.8227680  13.5385310  69.1587500  18.6382700  13.3214550
  60.2973500  24.4167860  19.1194840  60.8152170  23.6136120  19.0651730
  59.8457520  24.3547000  19.9611670  65.1843000  25.6834140  14.3922140
  65.5258700  26.4276370  13.8965460  64.3555710  25.9965260  14.7546970
  57.7818040  21.3829230  26.0320540  57.4232980  22.0483080  26.6193880
  57.4872600  20.5512780  26.4033160  60.9831160  21.8413470  28.9160090
  60.6831300  21.9870650  28.0187910  61.7542400  21.2818760  28.8233480
  66.3259610  26.6382470  26.9115220  66.3404150  25.7063430  26.6934130
  65.6184710  26.7242230  27.5504990  71.4596680  20.8222290  13.1813830
  71.3760400  21.2536510  12.3310270  72.1790870  21.2820640  13.6140650
  72.5370820  23.2789810  26.2583800  71.8119010  23.8718590  26.0613190
  73.0646280  23.2713350  25.4597170  72.4883930  27.6764550  15.9095960
  71.8460090  27.0220170  16.1839680  72.1014590  28.0819640  15.1336630
  68.0670410  25.0049980  19.7567650  68.4194230  24.4078110  19.0969020
  67.1832740  24.6794210  19.9275900  64.1533690  25.7647670  17.1638060
  64.8404820  26.3116880  17.5445650  63.3666110  26.3088400  17.1987670
  56.2926090  21.3820490  12.6555140  57.1620940  21.6645290  12.9391060
  55.8016410  22.1956360  12.5403950  63.4560900  22.7693700  16.7763420
  63.9123680  23.5798950  17.0023610  63.1049110  22.4516840  17.6081910
  65.7593510  28.2800040  24.0055720  66.4035730  28.4859420  24.6829140
  66.1222950  27.5188440  23.5526570  59.3572680  13.1131350  17.2485940
  59.2287310  13.1049250  18.1970860  58.5334700  13.4514440  16.8976950
  67.0325590  26.2832390  22.7233170  67.6747820  25.5825550  22.8365340
  67.5574940  27.0630830  22.5430060  70.8781310  26.5681010  12.4472310
  70.6518890  25.8511450  13.0396950  70.4877510  26.3193450  11.6094060
  68.8063210  27.0827290  25.9269230  69.1419450  27.6693980  26.6047150
  67.8863550  26.9520000  26.1567020  56.6597340  30.5947870  13.2216770
  57.0194980  31.1937210  12.5674040  56.5189680  31.1407760  13.9951800
  56.3566610  14.8722470  26.7092640  55.6425130  15.0719390  27.3145250
  56.7761650  14.0962040  27.0807440  70.4597560  24.4852950  14.1086470
  70.1719260  24.9465640  14.8964350  71.2549730  24.0250720  14.3770690
  56.6439200  28.8602730  27.6959170  56.7530320  27.9197470  27.5554560
  55.9919760  29.1257480  27.0472900  64.6351790  27.1318620  29.0957290
  64.3148660  26.4127860  29.6402980  63.9610150  27.8073690  29.1693350
  62.6765960  27.9779070  14.0390440  62.6676060  28.7108760  13.4234950
  61.7564320  27.7310650  14.1317400  58.2772600  23.1993960  14.7837200
  57.6700550  23.9392860  14.7932500  58.7521950  23.2893320  13.9575400
  67.8505390  17.3644780  24.4594090  68.2186210  16.5439990  24.7873660
  66.9903590  17.4246670  24.8749740  71.2167420  16.3201720  15.2681650
  70.5880580  16.4247390  14.5539880  70.7219340  16.5398500  16.0575530
  65.6625560  28.0407310  12.7015630  65.7637540  27.8371300  11.7717610
  64.7627300  27.7865590  12.9063410  63.1851450  18.5987670  16.6839530
  62.4767600  19.0674010  17.1253140  63.4695930  17.9409680  17.3184720
  64.8107380  20.0184370  24.6832060  65.3092630  20.4930190  25.3483910
  64.9530330  19.0947890  24.8902090  67.2166880  15.3238330  18.1235320
  67.0934660  15.3424460  17.1744830  68.1651440  15.3717270  18.2433720
  64.3043670  30.5593630  17.3963300  64.5585170  30.5215020  16.4742670
  63.3556150  30.4326960  17.3891550  61.3886470  16.9072750  14.0590240
  62.2377000  17.3442900  13.9930430  61.0217740  17.2193010  14.8862300
  72.0174240  16.2352330  25.5260450  71.5147840  16.9757730  25.8654260
  72.8330900  16.6236330  25.2097240  70.3096250  21.4785510  18.9721810
  69.3686390  21.4935740  19.1469500  70.6240320  20.6921470  19.4182110
  60.2877890  23.1605110  12.5325770  61.0541160  23.0486470  13.0951200
  60.3652580  22.4643080  11.8802540  58.9824650  20.5930180  13.2158660
  59.0628240  19.6457690  13.3276060  59.8744400  20.9237060  13.3219320
  72.3121830  28.6494360  20.6476070  72.4369250  29.4725530  21.1199880
  73.1787390  28.4385090  20.3000220  59.7839360  30.7425570  20.3193200
  60.5201840  30.1941030  20.5901770  60.1680280  31.6081580  20.1799190
  56.6684840  26.8099140  16.1934710  55.7424620  27.0520280  16.1840120
  57.1341270  27.6373400  16.0719460  58.7897640  29.9271640  29.5078780
  59.5910370  30.2483690  29.9214180  58.2749460  29.5667220  30.2298690
  62.8941670  29.9155880  12.1418770  63.6870280  30.2044710  11.6900560
  62.3746020  29.4848050  11.4631250  67.6262270  26.0351510  29.4554190
  67.0200430  26.0583110  28.7149940  67.3216380  25.3034550  29.9921440
  69.0562640  29.7631800  28.0663600  70.0084390  29.6789820  28.0163840
  68.9090860  30.4273510  28.7397390  71.9471840  29.1426010  13.5655510
  71.6613350  28.7291150  12.7509690  71.7491390  30.0713720  13.4456030
  56.5095450  22.4145100  28.4514830  57.0134470  21.8352380  29.0231060
  55.7702870  22.6985330  28.9891200  63.4119070  25.1359290  12.0061120
  63.3069710  24.5211640  12.7322500  63.2443290  24.6125180  11.2224130
  63.5633390  23.8216090  27.9850350  62.7979060  24.3901090  27.9005020
  63.7449350  23.5292300  27.0918580  66.6521800  24.1979320  12.6103110
  66.1031900  24.6448620  13.2545850  67.2741060  23.6928570  13.1340780
  70.7056740  25.5521420  28.5425370  71.4466210  25.8897180  28.0392830
  69.9429420  25.7213480  27.9895140  58.5418530  20.5574690  29.3464900
  58.5823870  20.2588560  30.2550130  59.3964030  20.9582300  29.1872420
  62.3196920  23.1570240  14.5068410  62.7413340  22.9910110  15.3499800
  62.4447760  22.3470470  14.0123550  60.4824340  19.1366790  27.3139390
  59.9520800  18.6457740  26.6862730  61.1512410  19.5650990  26.7797320
  64.8324560  22.1807850  11.7545510  65.3530220  21.4656870  11.3886660
  65.4792960  22.8193720  12.0546020  69.3802400  23.6036250  27.0780580
  69.7943420  23.7581330  27.9271000  68.4453400  23.7291470  27.2406360
  69.8524570  20.9432410  29.0819730  70.4345340  20.1884730  28.9940210
  70.0286340  21.4739850  28.3051210  60.9696640  16.1029160  27.3936680
  60.8753510  15.4849910  26.6687550  60.3894030  16.8295450  27.1666590
  63.7358080  14.6602400  24.4264070  63.2875380  14.6826660  23.5809620
  63.1023280  14.2621420  25.0234370  64.1417630  23.5556730  25.0476510
  64.5605740  24.3989460  24.8752750  63.2226260  23.6928770  24.8183290
  66.4781530  21.2872910  26.4314350  66.5977740  20.6914050  27.1709190
  67.3375530  21.3242600  26.0115650  68.8169430  21.8410100  25.0076860
  68.2904650  22.3652720  24.4042000  69.1600770  22.4737490  25.6386590
  61.2155820  19.2303470  11.4526570  61.0144880  18.3670830  11.8139910
  61.0447870  19.1436830  10.5148170  61.9925050  29.8609740  26.1634240
  61.4546140  30.5855800  25.8442940  62.2459010  29.3840080  25.3731580
  63.2450300  17.8294260  27.6890170  63.8349990  17.5210110  28.3767990
  62.4270540  17.3574010  27.8450070  68.0643730  17.4460070  27.9223190
  67.3759250  16.7841610  27.8573180  68.7849750  16.9998340  28.3671650
  68.6944130  14.0411700  13.9813450  68.9746420  13.1979600  14.3372870
  67.9209860  14.2734810  14.4952200  60.0138620  16.3304090  11.4404450
  60.3164520  16.3371520  10.5323600  60.7533210  15.9801950  11.9372110
  64.8487260  31.0960950  26.4220890  64.7745960  31.9996090  26.7293260
  63.9466100  30.7772850  26.3942960  63.2323550  15.2738710  12.4260650
  62.8845550  14.5962700  11.8463100  63.4336320  14.8128220  13.2404040
  65.3972590  30.2619460  14.0447250  66.2923380  30.6004430  14.0666010
  65.4290220  29.5398870  13.4171530  59.0368750  25.6346510  12.2734250
  59.4743620  26.1776180  12.9291830  59.5216480  24.8093460  12.2830590
  56.2514550  28.4235540  19.7254510  56.5817560  27.5556600  19.4933150
  56.6805550  28.6294060  20.5559470  60.8476470  26.7544550  17.3856480
  60.5472010  26.6309520  18.2860390  60.7413960  25.8953140  16.9772210
  56.7404760  29.2906130  22.4636140  56.3035750  29.4706930  23.2960290
  57.3082440  30.0480750  22.3217860  72.3766940  28.7923130  26.7513450
  71.7768930  28.8515690  26.0077370  72.5060840  27.8528110  26.8810300
  73.6168390  26.5340950  12.0883160  72.7861350  26.6017600  12.5590390
  73.7940220  27.4245070  11.7850020  73.0724850  23.2788430  14.5917360
  73.8343760  23.8485080  14.6977050  73.0879220  22.7115630  15.3625670
  56.5729190  21.8026360  18.8225020  55.9178030  21.5338000  18.1784720
  57.4107140  21.6930840  18.3727000  74.0784820  24.1338530  19.4359290
  74.4493650  23.3505850  19.0295260  74.7186750  24.8227630  19.2576590
  71.0618580  25.5175110  24.8489610  70.2478420  25.9472270  25.1115400
  71.4692780  26.1293520  24.2358660  73.1244020  23.5722800  11.7489880
  73.3992860  24.4801680  11.6209100  72.9354760  23.5085330  12.6851870
  69.5219630  16.5967650  13.0443510  69.9404510  16.4098630  12.2040170
  69.2155690  15.7446700  13.3546440  73.0209360  21.5091790  16.7419310
  72.6452960  20.7419720  16.3100600  72.2912480  21.8914490  17.2294240
  57.6105120  22.1878930  23.3628360  57.9778160  22.1006330  24.2424380
  57.0415940  21.4245480  23.2635220  72.4108980  20.6563310  26.3758830
  72.1795070  20.4276060  25.4756780  72.6713530  21.5762860  26.3303720
  57.1621120  19.0988020  27.2686780  56.2677170  19.0654780  27.6080490
  57.7018670  19.2974810  28.0338030  70.8497050  15.8819740  29.1538530
  71.7267230  15.8903140  29.5372530  70.8617890  15.1450580  28.5430880
  55.7867270  19.0125290  14.7650350  54.8831350  19.2755490  14.5902010
  56.2707890  19.2836460  13.9850310  72.2960320  19.7349280  20.0426550
  72.8197800  19.2411930  19.4116720  72.8819740  19.8699640  20.7874120
  72.4750040  19.8189150  23.5646100  71.5252750  19.7852690  23.6791090
  72.6563050  20.7289260  23.3295870  58.3294480  18.0690830  12.6744730
  59.0386180  17.6474050  12.1892010  57.6134420  18.1366060  12.0428080
  57.9768640  14.1230160  11.7147380  58.6996770  14.6639100  12.0328600
  58.2493160  13.8493580  10.8388920  71.7860290  18.9922630  15.9818960
  72.2819410  18.7593500  16.7667840  71.5876360  18.1534470  15.5656600
  57.6660830  13.3736350  21.6170000  58.3137020  12.8233730  21.1765160
  58.0862670  13.6279500  22.4385810  73.2147450  17.6283580  18.5156640
  73.1046730  17.4739620  19.4538910  73.9755040  17.1004520  18.2732050
  71.5613170  13.5677710  24.9739640  72.1985390  14.1811850  25.3398830
  71.7088060  13.6038370  24.0288870  74.1037720  15.4591500  11.7562780
  75.0287030  15.3272680  11.5481070  74.0813510  15.5384320  12.7099230
  74.1776210  16.2302160  14.3819490  73.3827710  16.1647280  14.9112400
  74.3819490  17.1652800  14.3704840  71.1194630  30.2693710  18.3757880
  71.7153700  29.9478280  17.6992300  71.3772780  29.7965530  19.1671150
  57.4192830  13.5292020  24.3595320  57.0707650  13.9855840  25.1253500
  57.0880530  12.6349150  24.4417750  59.0257200  26.7011620  28.5248510
  58.9826830  26.3304530  29.4062970  59.1568210  27.6389190  28.6650330
  62.7263230  28.2571210  24.1258230  62.4854590  28.5245770  23.2388750
  63.6665870  28.4276940  24.1809090  64.9317650  14.7203900  27.8814740
  64.8706540  15.3125730  28.6310150  65.8718030  14.6129860  27.7365000
  67.5692210  14.3773960  27.5207030  68.1832620  14.6953250  26.8588110
  68.1141770  13.8922550  28.1402890  73.9867390  30.2765590  24.9268870
  73.4925670  30.6734460  24.2096000  73.3780680  29.6514800  25.3206150
  58.0913470  13.0568220  27.6346090  58.6396460  12.8756270  26.8712200
  58.1568780  12.2662330  28.1702400  58.8645230  29.6473870  25.6446290
  58.2705550  29.5158570  26.3836330  58.8569070  28.8112010  25.1788390
  68.3100250  12.9406100  23.8476320  67.4360090  13.2741210  23.6449250
  68.2011000  12.4679280  24.6728190  69.2172230  15.1476970  25.2318040
  68.8885590  14.3328730  24.8519770  70.1654530  15.1046780  25.1083730
  71.6706840  30.9189010  22.2055610  71.2109810  31.6704820  21.8313630
  71.0419300  30.1995480  22.1470410  58.4957460  27.0132250  24.5954330
  57.7691520  26.3937540  24.5280280  58.5566610  27.4072860  23.7252410
  62.1002560  29.2277250  21.3803740  62.6167580  28.6164610  20.8552000
  62.7499940  29.7306030  21.8714750  64.8398060  30.1185740  22.2072720
  65.1275870  29.8640040  21.3305730  65.3521280  29.5663100  22.7978290
  66.0575070  13.8575940  22.7869230  65.2746860  14.3321440  23.0665990
  65.7638000  12.9530770  22.6782410  70.6096140  14.5599040  20.8318320
  71.0504230  14.5044140  19.9839920  70.3403730  15.4757050  20.9028500
  72.4734710  14.1914280  18.8427140  72.4123110  13.2475500  18.6958160
  73.2526740  14.2994370  19.3880600  56.7787460  30.3306640  17.8051090
  56.6109500  29.6977320  18.5032980  55.9121970  30.5366040  17.4545280
  57.4015480  14.1623420  15.3082950  58.1594840  14.2752300  14.7346980
  56.9392650  14.9992620  15.2626380  63.9429290  16.2762690  18.2985260
  63.1303800  15.9019580  17.9581140  64.4470930  15.5207770  18.6006450
  68.4454270  12.9405140  19.5368330  69.0483640  13.5125350  20.0116850
  67.7047260  13.5044580  19.3142230  71.5888870  13.3426700  14.8108610
  71.7839500  14.2410150  15.0776040  70.8018740  13.1113780  15.3041560
  58.3850160  29.0239870  15.2501230  57.8597780  29.4047900  14.5463190
  58.3094740  29.6490640  15.9710940  59.7740630  14.6887470  13.8484920
  60.3033390  13.9017270  13.7192870  60.4068950  15.3678660  14.0820450
  61.9678470  14.4262610  16.9030310  61.3381210  13.7249920  17.0700440
  61.4283610  15.1866740  16.6863470  64.9070420  31.0401840  29.5740920
  65.8337730  30.8046110  29.6176880  64.8920850  31.8673840  29.0926950
  73.1415480  30.5827410  16.5715170  73.3167670  29.8965150  15.9276090
  72.4437050  31.1074460  16.1791840  62.0934030  13.7046590  29.3382800
  61.8118300  14.2080190  28.5743620  62.4753730  12.9068340  28.9724930
  60.9843130  30.9722250  14.1250480  61.7161950  30.6881530  13.5774370
  61.2436800  30.7335530  15.0149860  60.1457920  27.0886980  14.1296810
  59.5166800  27.5572080  14.6782640  60.2605750  26.2436200  14.5643000
  68.6949490  13.1200170  29.9163270  68.5814940  13.4394780  30.8114790
  69.5119230  13.5212680  29.6200550  71.4747980  30.2671700  29.3981960
  72.2673300  29.7720930  29.1907920  71.7681130  30.9461840  30.0057570
  65.7325680  22.9171660   2.1607280  64.9567780  22.4372100   2.4505850
  66.3838610  22.2377310   1.9863440  59.7491510  23.2291470   3.0383040
  58.9176390  22.9740180   3.4379550  60.3572490  23.3002240   3.7740960
  59.7292770  27.2631560   3.2341060  60.0320810  26.3729300   3.0551280
  60.4736360  27.8201780   3.0063310  56.1216470  20.7899010   2.7065130
  56.6932580  20.0221210   2.7068770  56.1218010  21.0887770   1.7971740
  65.1734670  25.5928850   2.1677440  65.1042950  24.6518790   2.0066570
  65.9354530  25.6830260   2.7400010  57.3641340  16.1983370   4.4934060
  57.1844180  15.3009120   4.7736820  56.9621420  16.7455240   5.1681010
  66.2039840  18.3999230   2.3946370  66.5804660  17.5271110   2.2820040
  66.1059350  18.7357930   1.5036810  57.9828010  18.6943870   3.1016400
  58.6638120  18.9582240   3.7203800  57.6676060  17.8544740   3.4354410
  62.1752580  19.7411230   2.1888990  62.6830800  20.2392200   2.8294010
  62.7065820  18.9646430   2.0128350  74.2763510  17.9116420   5.8918340
  73.5715680  18.2998130   5.3733450  74.5421430  18.6066710   6.4939270
  60.4588680  14.3809790   6.4552410  60.4607120  14.8982180   5.6498310
  59.6292990  13.9039970   6.4322340  61.7091530  24.0204970   4.6325910
  61.3760910  24.6473890   5.2746980  61.8858210  24.5466850   3.8527580
  70.2225440  17.8350050   2.1002250  69.5181010  18.1234940   2.6805360
  70.5837600  18.6450160   1.7401810  60.1404010  16.0919750   4.4622860
  60.4820820  16.9361800   4.1676730  59.2019820  16.2403490   4.5788200
  60.9210630  25.9885770   6.4475090  61.5384630  26.6636850   6.1659540
  60.0603750  26.3973750   6.3562590  71.8388220  27.4525180   4.3629730
  71.1551740  28.1224290   4.3546400  72.3782510  27.6505830   3.5974590
  73.2912360  17.2804840   2.4911460  72.3437270  17.3143820   2.6226890
  73.6162350  18.0943790   2.8760820  69.3746960  29.2969310   3.0774910
  69.3874120  28.8931600   2.2097170  68.8222180  30.0716600   2.9736340
  68.7732400  24.1999150   4.4057520  69.1901190  23.9859260   3.5710980
  69.4972220  24.4571940   4.9766140  72.7194500  22.5986370   4.4973760
  71.8913130  22.6679460   4.0223890  73.3144980  23.1840680   4.0289590
  69.6836510  19.3855690   5.4428630  69.2707690  20.2109400   5.6968620
  68.9512460  18.8000730   5.2504990  62.2851000  25.8583150   2.4686510
  61.9879290  25.2528620   1.7894290  63.2350820  25.8960460   2.3575870
  60.5297920  18.9458800   4.0846340  61.0812510  19.0554140   3.3099590
  61.0441430  19.3196400   4.8001570  70.3736610  29.4315020   6.1309610
  69.8967170  30.2387210   5.9382220  69.6898400  28.7793350   6.2835820
  61.3769430  25.5964840   9.1194310  60.4797960  25.8204810   9.3667710
  61.4022300  25.7199780   8.1705710  60.2040650  22.4678160   7.6951680
  60.0648420  23.3400960   8.0639080  59.3222010  22.1250970   7.5499620
  62.0021000  28.4099860   9.9036830  61.9736430  28.8142810   9.0365260
  61.8385970  27.4810220   9.7408430  73.9535820  29.1926960  11.2001000
  74.4295540  29.6709850  11.8790080  74.5742980  29.1244450  10.4746500
  56.1559300  24.2375710   3.6122590  56.2339720  24.3724480   2.6678310
  56.7700980  23.5291600   3.8050710  73.3569070  26.3839810   8.3601010
  73.4832130  26.1451690   7.4418190  73.3990450  25.5524350   8.8323090
  67.2185810  30.0867810   6.9295820  67.7330480  29.9975820   7.7318250
  66.3754890  30.4327510   7.2223730  73.2093080  18.4372270   9.3250750
  72.5937350  18.9451940   8.7966210  72.8889500  17.5370600   9.2676690
  56.2118820  25.2789880   6.1517050  56.3749860  24.8095240   5.3336420
  56.6771270  24.7713440   6.8165890  65.2707400  17.2764160   6.7912940
  64.8086770  17.4847180   7.6032880  64.8685510  16.4623510   6.4883610
  70.2711910  18.4973110   7.9209600  69.4205500  18.1978860   8.2418670
  70.1113700  18.7415120   7.0093420  67.3661620  19.9974860  10.0208390
  67.6915030  19.1638610   9.6810620  68.1541950  20.5203380  10.1686720
  63.0213490  14.9542970   3.0467220  63.3185820  15.8605800   2.9659240
  63.5699050  14.4661750   2.4326790  63.2151020  20.4314790   9.5819140
  63.1194620  19.4909520   9.4319540  64.0583000  20.6529860   9.1867210
  58.3461560  16.8428460   7.7352920  57.9524950  17.6903670   7.9425700
  57.6579960  16.2054830   7.9261560  64.9206610  16.9263430  10.8049660
  64.2304930  16.7335630  11.4395750  65.6638910  17.2098070  11.3373960
  55.6478610  14.7656920   1.7683000  55.3591660  15.3359780   2.4807980
  56.3924370  14.2861370   2.1314230  67.1969580  20.7661870   3.6403580
  66.4650700  21.2748680   3.9893680  66.7993920  19.9491850   3.3392360
  67.6595490  16.2195550   3.0526520  67.6768230  16.6704200   3.8968370
  67.4111070  15.3201190   3.2659960  71.0866240  13.6327730   8.8912900
  71.4112010  12.9017390   9.4170880  71.1222750  13.3141370   7.9893890
  57.7857800  24.6541310   8.3112860  57.4012590  24.0134980   8.9095820
  58.0969990  25.3577430   8.8807590  63.9354940  21.5017850   3.7921480
  64.3025070  21.0276420   4.5382820  63.7460000  22.3759420   4.1329820
  61.7254310  20.5426490   6.1105690  61.4211380  21.4218470   6.3356050
  62.6800770  20.6026280   6.1463130  71.0124080  23.7452840   2.4998930
  71.7323200  24.2408130   2.1095040  70.8105900  23.0670730   1.8552800
  66.3942880  23.8161900   8.3867930  66.3280190  22.8957570   8.1325520
  65.7648020  23.9137340   9.1012570  57.7818040  21.3829230   7.2577050
  57.4232980  22.0483080   7.8450390  57.4872600  20.5512780   7.6289670
  60.9831160  21.8413470  10.1416600  60.6831300  21.9870650   9.2444420
  61.7542400  21.2818760  10.0489990  66.3259610  26.6382470   8.1371730
  66.3404150  25.7063430   7.9190640  65.6184710  26.7242230   8.7761500
  72.5370820  23.2789810   7.4840310  71.8119010  23.8718590   7.2869700
  73.0646280  23.2713350   6.6853680  65.7593510  28.2800040   5.2312230
  66.4035730  28.4859420   5.9085650  66.1222950  27.5188440   4.7783080
  67.0325590  26.2832390   3.9489680  67.6747820  25.5825550   4.0621850
  67.5574940  27.0630830   3.7686570  68.8063210  27.0827290   7.1525740
  69.1419450  27.6693980   7.8303660  67.8863550  26.9520000   7.3823530
  56.3566610  14.8722470   7.9349150  55.6425130  15.0719390   8.5401760
  56.7761650  14.0962040   8.3063950  56.6439200  28.8602730   8.9215680
  56.7530320  27.9197470   8.7811070  55.9919760  29.1257480   8.2729410
  64.6351790  27.1318620  10.3213800  64.3148660  26.4127860  10.8659490
  63.9610150  27.8073690  10.3949860  67.8505390  17.3644780   5.6850600
  68.2186210  16.5439990   6.0130170  66.9903590  17.4246670   6.1006250
  64.8107380  20.0184370   5.9088570  65.3092630  20.4930190   6.5740420
  64.9530330  19.0947890   6.1158600  72.0174240  16.2352330   6.7516960
  71.5147840  16.9757730   7.0910770  72.8330900  16.6236330   6.4353750
  72.3121830  28.6494360   1.8732580  72.4369250  29.4725530   2.3456390
  73.1787390  28.4385090   1.5256730  58.7897640  29.9271640  10.7335290
  59.5910370  30.2483690  11.1470690  58.2749460  29.5667220  11.4555200
  67.6262270  26.0351510  10.6810700  67.0200430  26.0583110   9.9406450
  67.3216380  25.3034550  11.2177950  69.0562640  29.7631800   9.2920110
  70.0084390  29.6789820   9.2420350  68.9090860  30.4273510   9.9653900
  56.5095450  22.4145100   9.6771340  57.0134470  21.8352380  10.2487570
  55.7702870  22.6985330  10.2147710  63.5633390  23.8216090   9.2106860
  62.7979060  24.3901090   9.1261530  63.7449350  23.5292300   8.3175090
  70.7056740  25.5521420   9.7681880  71.4466210  25.8897180   9.2649340
  69.9429420  25.7213480   9.2151650  58.5418530  20.5574690  10.5721410
  58.5823870  20.2588560  11.4806640  59.3964030  20.9582300  10.4128930
  60.4824340  19.1366790   8.5395900  59.9520800  18.6457740   7.9119240
  61.1512410  19.5650990   8.0053830  69.3802400  23.6036250   8.3037090
  69.7943420  23.7581330   9.1527510  68.4453400  23.7291470   8.4662870
  69.8524570  20.9432410  10.3076240  70.4345340  20.1884730  10.2196720
  70.0286340  21.4739850   9.5307720  60.9696640  16.1029160   8.6193190
  60.8753510  15.4849910   7.8944060  60.3894030  16.8295450   8.3923100
  63.7358080  14.6602400   5.6520580  63.2875380  14.6826660   4.8066130
  63.1023280  14.2621420   6.2490880  64.1417630  23.5556730   6.2733020
  64.5605740  24.3989460   6.1009260  63.2226260  23.6928770   6.0439800
  66.4781530  21.2872910   7.6570860  66.5977740  20.6914050   8.3965700
  67.3375530  21.3242600   7.2372160  68.8169430  21.8410100   6.2333370
  68.2904650  22.3652720   5.6298510  69.1600770  22.4737490   6.8643100
  61.9925050  29.8609740   7.3890750  61.4546140  30.5855800   7.0699450
  62.2459010  29.3840080   6.5988090  63.2450300  17.8294260   8.9146680
  63.8349990  17.5210110   9.6024500  62.4270540  17.3574010   9.0706580
  68.0643730  17.4460070   9.1479700  67.3759250  16.7841610   9.0829690
  68.7849750  16.9998340   9.5928160  64.8487260  31.0960950   7.6477400
  64.7745960  31.9996090   7.9549770  63.9466100  30.7772850   7.6199470
  56.7404760  29.2906130   3.6892650  56.3035750  29.4706930   4.5216800
  57.3082440  30.0480750   3.5474370  72.3766940  28.7923130   7.9769960
  71.7768930  28.8515690   7.2333880  72.5060840  27.8528110   8.1066810
  71.0618580  25.5175110   6.0746120  70.2478420  25.9472270   6.3371910
  71.4692780  26.1293520   5.4615170  57.6105120  22.1878930   4.5884870
  57.9778160  22.1006330   5.4680890  57.0415940  21.4245480   4.4891730
  72.4108980  20.6563310   7.6015340  72.1795070  20.4276060   6.7013290
  72.6713530  21.5762860   7.5560230  57.1621120  19.0988020   8.4943290
  56.2677170  19.0654780   8.8337000  57.7018670  19.2974810   9.2594540
  70.8497050  15.8819740  10.3795040  71.7267230  15.8903140  10.7629040
  70.8617890  15.1450580   9.7687390  72.4750040  19.8189150   4.7902610
  71.5252750  19.7852690   4.9047600  72.6563050  20.7289260   4.5552380
  57.6660830  13.3736350   2.8426510  58.3137020  12.8233730   2.4021670
  58.0862670  13.6279500   3.6642320  71.5613170  13.5677710   6.1996150
  72.1985390  14.1811850   6.5655340  71.7088060  13.6038370   5.2545380
  57.4192830  13.5292020   5.5851830  57.0707650  13.9855840   6.3510010
  57.0880530  12.6349150   5.6674260  59.0257200  26.7011620   9.7505020
  58.9826830  26.3304530  10.6319480  59.1568210  27.6389190   9.8906840
  62.7263230  28.2571210   5.3514740  62.4854590  28.5245770   4.4645260
  63.6665870  28.4276940   5.4065600  64.9317650  14.7203900   9.1071250
  64.8706540  15.3125730   9.8566660  65.8718030  14.6129860   8.9621510
  67.5692210  14.3773960   8.7463540  68.1832620  14.6953250   8.0844620
  68.1141770  13.8922550   9.3659400  73.9867390  30.2765590   6.1525380
  73.4925670  30.6734460   5.4352510  73.3780680  29.6514800   6.5462660
  58.0913470  13.0568220   8.8602600  58.6396460  12.8756270   8.0968710
  58.1568780  12.2662330   9.3958910  58.8645230  29.6473870   6.8702800
  58.2705550  29.5158570   7.6092840  58.8569070  28.8112010   6.4044900
  68.3100250  12.9406100   5.0732830  67.4360090  13.2741210   4.8705760
  68.2011000  12.4679280   5.8984700  69.2172230  15.1476970   6.4574550
  68.8885590  14.3328730   6.0776280  70.1654530  15.1046780   6.3340240
  71.6706840  30.9189010   3.4312120  71.2109810  31.6704820   3.0570140
  71.0419300  30.1995480   3.3726920  58.4957460  27.0132250   5.8210840
  57.7691520  26.3937540   5.7536790  58.5566610  27.4072860   4.9508920
  62.1002560  29.2277250   2.6060250  62.6167580  28.6164610   2.0808510
  62.7499940  29.7306030   3.0971260  64.8398060  30.1185740   3.4329230
  65.1275870  29.8640040   2.5562240  65.3521280  29.5663100   4.0234800
  66.0575070  13.8575940   4.0125740  65.2746860  14.3321440   4.2922500
  65.7638000  12.9530770   3.9038920  64.9070420  31.0401840  10.7997430
  65.8337730  30.8046110  10.8433390  64.8920850  31.8673840  10.3183460
  62.0934030  13.7046590  10.5639310  61.8118300  14.2080190   9.8000130
  62.4753730  12.9068340  10.1981440  68.6949490  13.1200170  11.1419780
  68.5814940  13.4394780  12.0371300  69.5119230  13.5212680  10.8457060
  71.4747980  30.2671700  10.6238470  72.2673300  29.7720930  10.4164430
  71.7681130  30.9461840  11.2314080  69.7533110   8.5488360  57.2636880
  69.2914640   7.7775600  57.5924050  70.5658660   8.5754430  57.7689330
  65.9796420  10.8346370  56.8840870  65.3607860  11.2903870  56.3135310
  66.8348200  10.9897830  56.4830570  66.8459770   5.7185610  54.2772780
  66.2277040   6.1835060  53.7135500  67.3583020   6.4113090  54.6942290
  56.2142970   6.4042140  51.6512410  55.8370950   6.8929240  50.9197310
  56.4716040   7.0767420  52.2818940  70.6692380   7.2442040  54.4895550
  70.5588710   6.3016370  54.6144970  70.6660630   7.6057680  55.3758310
  66.2112660   2.8707360  53.8458040  65.2841940   2.8044740  54.0746510
  66.3637480   3.8087490  53.7313280  70.2409950   4.4327660  54.3493290
  69.6222370   4.0947210  53.7019590  70.2234400   3.7887420  55.0572480
  61.8169300   3.3972100  56.6277770  61.4126300   2.6849350  56.1323670
  61.9032420   3.0525340  57.5165810  68.4174650   3.6714470  51.3566040
  68.8567930   2.8336900  51.2103860  69.1303070   4.3043870  51.4430180
  66.5270030   8.6110540  55.3247280  66.9665940   9.3534870  54.9102670
  66.4656920   8.8537110  56.2486240  58.5173930   2.2917080  54.1284420
  58.3971530   3.0179170  53.5165690  58.2074820   1.5219990  53.6512330
  57.4006930   7.1632410  56.3459240  56.9935010   7.3047000  55.4912840
  58.2919940   6.8792570  56.1430450  69.1940210  11.5979660  52.6810290
  69.0341350  11.3082600  53.5792120  69.0286920  10.8219790  52.1455520
  61.6728590  11.3778190  54.4581910  61.4971070  10.4613730  54.2449710
  60.8184330  11.7365480  54.6979710  68.8966340   9.1067220  51.2408290
  68.2031500   9.1044510  50.5810570  69.6389200   8.6826540  50.8102460
  68.4616270  10.7329930  55.3156780  68.9173220   9.9519310  55.6295400
  68.8008790  11.4436750  55.8597960  62.7088620   1.9785800  50.7576600
  62.1405520   1.5304050  50.1312510  63.4177620   2.3378580  50.2241750
  60.2536100   5.9743990  53.0303010  59.4798360   5.4341610  52.8701730
  60.9830730   5.4550600  52.6920770  60.2973500   5.6424370  56.6681820
  60.8152170   4.8392630  56.6138710  59.8457520   5.5803510  57.5098650
  65.1843000   6.9090650  51.9409120  65.5258700   7.6532880  51.4452440
  64.3555710   7.2221770  52.3033950  71.4596680   2.0478800  50.7300810
  71.3760400   2.4793020  49.8797250  72.1790870   2.5077150  51.1627630
  72.4883930   8.9021060  53.4582940  71.8460090   8.2476680  53.7326660
  72.1014590   9.3076150  52.6823610  68.0670410   6.2306490  57.3054630
  68.4194230   5.6334620  56.6456000  67.1832740   5.9050720  57.4762880
  64.1533690   6.9904180  54.7125040  64.8404820   7.5373390  55.0932630
  63.3666110   7.5344910  54.7474650  56.2926090   2.6077000  50.2042120
  57.1620940   2.8901800  50.4878040  55.8016410   3.4212870  50.0890930
  63.4560900   3.9950210  54.3250400  63.9123680   4.8055460  54.5510590
  63.1049110   3.6773350  55.1568890  70.8781310   7.7937520  49.9959290
  70.6518890   7.0767960  50.5883930  70.4877510   7.5449960  49.1581040
  56.6597340  11.8204380  50.7703750  57.0194980  12.4193720  50.1161020
  56.5189680  12.3664270  51.5438780  70.4597560   5.7109460  51.6573450
  70.1719260   6.1722150  52.4451330  71.2549730   5.2507230  51.9257670
  62.6765960   9.2035580  51.5877420  62.6676060   9.9365270  50.9721930
  61.7564320   8.9567160  51.6804380  58.2772600   4.4250470  52.3324180
  57.6700550   5.1649370  52.3419480  58.7521950   4.5149830  51.5062380
  65.6625560   9.2663820  50.2502610  65.7637540   9.0627810  49.3204590
  64.7627300   9.0122100  50.4550390  64.3043670  11.7850140  54.9450280
  64.5585170  11.7471530  54.0229650  63.3556150  11.6583470  54.9378530
  70.3096250   2.7042020  56.5208790  69.3686390   2.7192250  56.6956480
  70.6240320   1.9177980  56.9669090  60.2877890   4.3861620  50.0812750
  61.0541160   4.2742980  50.6438180  60.3652580   3.6899590  49.4289520
  59.7839360  11.9682080  57.8680180  60.5201840  11.4197540  58.1388750
  60.1680280  12.8338090  57.7286170  56.6684840   8.0355650  53.7421690
  55.7424620   8.2776790  53.7327100  57.1341270   8.8629910  53.6206440
  62.8941670  11.1412390  49.6905750  63.6870280  11.4301220  49.2387540
  62.3746020  10.7104560  49.0118230  71.9471840  10.3682520  51.1142490
  71.6613350   9.9547660  50.2996670  71.7491390  11.2970230  50.9943010
  63.4119070   6.3615800  49.5548100  63.3069710   5.7468150  50.2809480
  63.2443290   5.8381690  48.7711110  66.6521800   5.4235830  50.1590090
  66.1031900   5.8705130  50.8032830  67.2741060   4.9185080  50.6827760
  62.3196920   4.3826750  52.0555390  62.7413340   4.2166620  52.8986780
  62.4447760   3.5726980  51.5610530  64.8324560   3.4064360  49.3032490
  65.3530220   2.6913380  48.9373640  65.4792960   4.0450230  49.6033000
  65.3972590  11.4875970  51.5934230  66.2923380  11.8260940  51.6152990
  65.4290220  10.7655380  50.9658510  59.0368750   6.8603020  49.8221230
  59.4743620   7.4032690  50.4778810  59.5216480   6.0349970  49.8317570
  56.2514550   9.6492050  57.2741490  56.5817560   8.7813110  57.0420130
  56.6805550   9.8550570  58.1046450  60.8476470   7.9801060  54.9343460
  60.5472010   7.8566030  55.8347370  60.7413960   7.1209650  54.5259190
  73.6168390   7.7597460  49.6370140  72.7861350   7.8274110  50.1077370
  73.7940220   8.6501580  49.3337000  73.0724850   4.5044940  52.1404340
  73.8343760   5.0741590  52.2464030  73.0879220   3.9372140  52.9112650
  56.5729190   3.0282870  56.3712000  55.9178030   2.7594510  55.7271700
  57.4107140   2.9187350  55.9213980  74.0784820   5.3595040  56.9846270
  74.4493650   4.5762360  56.5782240  74.7186750   6.0484140  56.8063570
  73.1244020   4.7979310  49.2976860  73.3992860   5.7058190  49.1696080
  72.9354760   4.7341840  50.2338850  73.0209360   2.7348300  54.2906290
  72.6452960   1.9676230  53.8587580  72.2912480   3.1171000  54.7781220
  71.1194630  11.4950220  55.9244860  71.7153700  11.1734790  55.2479280
  71.3772780  11.0222040  56.7158130  56.7787460  11.5563150  55.3538070
  56.6109500  10.9233830  56.0519960  55.9121970  11.7622550  55.0032260
  58.3850160  10.2496380  52.7988210  57.8597780  10.6304410  52.0950170
  58.3094740  10.8747150  53.5197920  73.1415480  11.8083920  54.1202150
  73.3167670  11.1221660  53.4763070  72.4437050  12.3330970  53.7278820
  60.9843130  12.1978760  51.6737460  61.7161950  11.9138040  51.1261350
  61.2436800  11.9592040  52.5636840  60.1457920   8.3143490  51.6783790
  59.5166800   8.7828590  52.2269620  60.2605750   7.4692710  52.1129980
  65.7325680   4.1428170  39.7094260  64.9567780   3.6628610  39.9992830
  66.3838610   3.4633820  39.5350420  59.7491510   4.4547980  40.5870020
  58.9176390   4.1996690  40.9866530  60.3572490   4.5258750  41.3227940
  69.7533110   8.5488360  38.4893390  69.2914640   7.7775600  38.8180560
  70.5658660   8.5754430  38.9945840  59.7292770   8.4888070  40.7828040
  60.0320810   7.5985810  40.6038260  60.4736360   9.0458290  40.5550290
  65.9796420  10.8346370  38.1097380  65.3607860  11.2903870  37.5391820
  66.8348200  10.9897830  37.7087080  65.1734670   6.8185360  39.7164420
  65.1042950   5.8775300  39.5553550  65.9354530   6.9086770  40.2886990
  66.8459770   5.7185610  35.5029290  66.2277040   6.1835060  34.9392010
  67.3583020   6.4113090  35.9198800  61.7091530   5.2461480  42.1812890
  61.3760910   5.8730400  42.8233960  61.8858210   5.7723360  41.4014560
  60.9210630   7.2142280  43.9962070  61.5384630   7.8893360  43.7146520
  60.0603750   7.6230260  43.9049570  56.2142970   6.4042140  32.8768920
  55.8370950   6.8929240  32.1453820  56.4716040   7.0767420  33.5075450
  71.8388220   8.6781690  41.9116710  71.1551740   9.3480800  41.9033380
  72.3782510   8.8762340  41.1461570  69.3746960  10.5225820  40.6261890
  69.3874120  10.1188110  39.7584150  68.8222180  11.2973110  40.5223320
  70.6692380   7.2442040  35.7152060  70.5588710   6.3016370  35.8401480
  70.6660630   7.6057680  36.6014820  68.7732400   5.4255660  41.9544500
  69.1901190   5.2115770  41.1197960  69.4972220   5.6828450  42.5253120
  66.2112660   2.8707360  35.0714550  65.2841940   2.8044740  35.3003020
  66.3637480   3.8087490  34.9569790  72.7194500   3.8242880  42.0460740
  71.8913130   3.8935970  41.5710870  73.3144980   4.4097190  41.5776570
  70.2409950   4.4327660  35.5749800  69.6222370   4.0947210  34.9276100
  70.2234400   3.7887420  36.2828990  61.8169300   3.3972100  37.8534280
  61.4126300   2.6849350  37.3580180  61.9032420   3.0525340  38.7422320
  62.2851000   7.0839660  40.0173490  61.9879290   6.4785130  39.3381270
  63.2350820   7.1216970  39.9062850  70.3736610  10.6571530  43.6796590
  69.8967170  11.4643720  43.4869200  69.6898400  10.0049860  43.8322800
  61.3769430   6.8221350  46.6681290  60.4797960   7.0461320  46.9154690
  61.4022300   6.9456290  45.7192690  68.4174650   3.6714470  32.5822550
  68.8567930   2.8336900  32.4360370  69.1303070   4.3043870  32.6686690
  60.2040650   3.6934670  45.2438660  60.0648420   4.5657470  45.6126060
  59.3222010   3.3507480  45.0986600  66.5270030   8.6110540  36.5503790
  66.9665940   9.3534870  36.1359180  66.4656920   8.8537110  37.4742750
  62.0021000   9.6356370  47.4523810  61.9736430  10.0399320  46.5852240
  61.8385970   8.7066730  47.2895410  58.5173930   2.2917080  35.3540930
  58.3971530   3.0179170  34.7422200  58.2074820   1.5219990  34.8768840
  73.9535820  10.4183470  48.7487980  74.4295540  10.8966360  49.4277060
  74.5742980  10.3500960  48.0233480  56.1559300   5.4632220  41.1609570
  56.2339720   5.5980990  40.2165290  56.7700980   4.7548110  41.3537690
  57.4006930   7.1632410  37.5715750  56.9935010   7.3047000  36.7169350
  58.2919940   6.8792570  37.3686960  73.3569070   7.6096320  45.9087990
  73.4832130   7.3708200  44.9905170  73.3990450   6.7780860  46.3810070
  67.2185810  11.3124320  44.4782800  67.7330480  11.2232330  45.2805230
  66.3754890  11.6584020  44.7710710  69.1940210  11.5979660  33.9066800
  69.0341350  11.3082600  34.8048630  69.0286920  10.8219790  33.3712030
  61.6728590  11.3778190  35.6838420  61.4971070  10.4613730  35.4706220
  60.8184330  11.7365480  35.9236220  68.8966340   9.1067220  32.4664800
  68.2031500   9.1044510  31.8067080  69.6389200   8.6826540  32.0358970
  68.4616270  10.7329930  36.5413290  68.9173220   9.9519310  36.8551910
  68.8008790  11.4436750  37.0854470  56.2118820   6.5046390  43.7004030
  56.3749860   6.0351750  42.8823400  56.6771270   5.9969950  44.3652870
  62.7088620   1.9785800  31.9833110  62.1405520   1.5304050  31.3569020
  63.4177620   2.3378580  31.4498260  57.7857800   5.8797820  45.8599840
  57.4012590   5.2391490  46.4582800  58.0969990   6.5833940  46.4294570
  63.9354940   2.7274360  41.3408460  64.3025070   2.2532930  42.0869800
  63.7460000   3.6015930  41.6816800  61.7254310   1.7683000  43.6592670
  61.4211380   2.6474980  43.8843030  62.6800770   1.8282790  43.6950110
  60.2536100   5.9743990  34.2559520  59.4798360   5.4341610  34.0958240
  60.9830730   5.4550600  33.9177280  71.0124080   4.9709350  40.0485910
  71.7323200   5.4664640  39.6582020  70.8105900   4.2927240  39.4039780
  66.3942880   5.0418410  45.9354910  66.3280190   4.1214080  45.6812500
  65.7648020   5.1393850  46.6499550  60.2973500   5.6424370  37.8938330
  60.8152170   4.8392630  37.8395220  59.8457520   5.5803510  38.7355160
  65.1843000   6.9090650  33.1665630  65.5258700   7.6532880  32.6708950
  64.3555710   7.2221770  33.5290460  57.7818040   2.6085740  44.8064030
  57.4232980   3.2739590  45.3937370  57.4872600   1.7769290  45.1776650
  60.9831160   3.0669980  47.6903580  60.6831300   3.2127160  46.7931400
  61.7542400   2.5075270  47.5976970  66.3259610   7.8638980  45.6858710
  66.3404150   6.9319940  45.4677620  65.6184710   7.9498740  46.3248480
  71.4596680   2.0478800  31.9557320  71.3760400   2.4793020  31.1053760
  72.1790870   2.5077150  32.3884140  72.5370820   4.5046320  45.0327290
  71.8119010   5.0975100  44.8356680  73.0646280   4.4969860  44.2340660
  72.4883930   8.9021060  34.6839450  71.8460090   8.2476680  34.9583170
  72.1014590   9.3076150  33.9080120  68.0670410   6.2306490  38.5311140
  68.4194230   5.6334620  37.8712510  67.1832740   5.9050720  38.7019390
  64.1533690   6.9904180  35.9381550  64.8404820   7.5373390  36.3189140
  63.3666110   7.5344910  35.9731160  56.2926090   2.6077000  31.4298630
  57.1620940   2.8901800  31.7134550  55.8016410   3.4212870  31.3147440
  63.4560900   3.9950210  35.5506910  63.9123680   4.8055460  35.7767100
  63.1049110   3.6773350  36.3825400  65.7593510   9.5056550  42.7799210
  66.4035730   9.7115930  43.4572630  66.1222950   8.7444950  42.3270060
  67.0325590   7.5088900  41.4976660  67.6747820   6.8082060  41.6108830
  67.5574940   8.2887340  41.3173550  70.8781310   7.7937520  31.2215800
  70.6518890   7.0767960  31.8140440  70.4877510   7.5449960  30.3837550
  68.8063210   8.3083800  44.7012720  69.1419450   8.8950490  45.3790640
  67.8863550   8.1776510  44.9310510  56.6597340  11.8204380  31.9960260
  57.0194980  12.4193720  31.3417530  56.5189680  12.3664270  32.7695290
  70.4597560   5.7109460  32.8829960  70.1719260   6.1722150  33.6707840
  71.2549730   5.2507230  33.1514180  56.6439200  10.0859240  46.4702660
  56.7530320   9.1453980  46.3298050  55.9919760  10.3513990  45.8216390
  64.6351790   8.3575130  47.8700780  64.3148660   7.6384370  48.4146470
  63.9610150   9.0330200  47.9436840  62.6765960   9.2035580  32.8133930
  62.6676060   9.9365270  32.1978440  61.7564320   8.9567160  32.9060890
  58.2772600   4.4250470  33.5580690  57.6700550   5.1649370  33.5675990
  58.7521950   4.5149830  32.7318890  65.6625560   9.2663820  31.4759120
  65.7637540   9.0627810  30.5461100  64.7627300   9.0122100  31.6806900
  64.3043670  11.7850140  36.1706790  64.5585170  11.7471530  35.2486160
  63.3556150  11.6583470  36.1635040  70.3096250   2.7042020  37.7465300
  69.3686390   2.7192250  37.9212990  70.6240320   1.9177980  38.1925600
  60.2877890   4.3861620  31.3069260  61.0541160   4.2742980  31.8694690
  60.3652580   3.6899590  30.6546030  72.3121830   9.8750870  39.4219560
  72.4369250  10.6982040  39.8943370  73.1787390   9.6641600  39.0743710
  59.7839360  11.9682080  39.0936690  60.5201840  11.4197540  39.3645260
  60.1680280  12.8338090  38.9542680  56.6684840   8.0355650  34.9678200
  55.7424620   8.2776790  34.9583610  57.1341270   8.8629910  34.8462950
  58.7897640  11.1528150  48.2822270  59.5910370  11.4740200  48.6957670
  58.2749460  10.7923730  49.0042180  62.8941670  11.1412390  30.9162260
  63.6870280  11.4301220  30.4644050  62.3746020  10.7104560  30.2374740
  67.6262270   7.2608020  48.2297680  67.0200430   7.2839620  47.4893430
  67.3216380   6.5291060  48.7664930  69.0562640  10.9888310  46.8407090
  70.0084390  10.9046330  46.7907330  68.9090860  11.6530020  47.5140880
  71.9471840  10.3682520  32.3399000  71.6613350   9.9547660  31.5253180
  71.7491390  11.2970230  32.2199520  56.5095450   3.6401610  47.2258320
  57.0134470   3.0608890  47.7974550  55.7702870   3.9241840  47.7634690
  63.4119070   6.3615800  30.7804610  63.3069710   5.7468150  31.5065990
  63.2443290   5.8381690  29.9967620  63.5633390   5.0472600  46.7593840
  62.7979060   5.6157600  46.6748510  63.7449350   4.7548810  45.8662070
  66.6521800   5.4235830  31.3846600  66.1031900   5.8705130  32.0289340
  67.2741060   4.9185080  31.9084270  70.7056740   6.7777930  47.3168860
  71.4466210   7.1153690  46.8136320  69.9429420   6.9469990  46.7638630
  58.5418530   1.7831200  48.1208390  58.5823870   1.4845070  49.0293620
  59.3964030   2.1838810  47.9615910  62.3196920   4.3826750  33.2811900
  62.7413340   4.2166620  34.1243290  62.4447760   3.5726980  32.7867040
  64.8324560   3.4064360  30.5289000  65.3530220   2.6913380  30.1630150
  65.4792960   4.0450230  30.8289510  69.3802400   4.8292760  45.8524070
  69.7943420   4.9837840  46.7014490  68.4453400   4.9547980  46.0149850
  64.1417630   4.7813240  43.8220000  64.5605740   5.6245970  43.6496240
  63.2226260   4.9185280  43.5926780  66.4781530   2.5129420  45.2057840
  66.5977740   1.9170560  45.9452680  67.3375530   2.5499110  44.7859140
  68.8169430   3.0666610  43.7820350  68.2904650   3.5909230  43.1785490
  69.1600770   3.6994000  44.4130080  61.9925050  11.0866250  44.9377730
  61.4546140  11.8112310  44.6186430  62.2459010  10.6096590  44.1475070
  64.8487260  12.3217460  45.1964380  64.7745960  13.2252600  45.5036750
  63.9466100  12.0029360  45.1686450  65.3972590  11.4875970  32.8190740
  66.2923380  11.8260940  32.8409500  65.4290220  10.7655380  32.1915020
  59.0368750   6.8603020  31.0477740  59.4743620   7.4032690  31.7035320
  59.5216480   6.0349970  31.0574080  56.2514550   9.6492050  38.4998000
  56.5817560   8.7813110  38.2676640  56.6805550   9.8550570  39.3302960
  60.8476470   7.9801060  36.1599970  60.5472010   7.8566030  37.0603880
  60.7413960   7.1209650  35.7515700  56.7404760  10.5162640  41.2379630
  56.3035750  10.6963440  42.0703780  57.3082440  11.2737260  41.0961350
  72.3766940  10.0179640  45.5256940  71.7768930  10.0772200  44.7820860
  72.5060840   9.0784620  45.6553790  73.6168390   7.7597460  30.8626650
  72.7861350   7.8274110  31.3333880  73.7940220   8.6501580  30.5593510
  73.0724850   4.5044940  33.3660850  73.8343760   5.0741590  33.4720540
  73.0879220   3.9372140  34.1369160  56.5729190   3.0282870  37.5968510
  55.9178030   2.7594510  36.9528210  57.4107140   2.9187350  37.1470490
  74.0784820   5.3595040  38.2102780  74.4493650   4.5762360  37.8038750
  74.7186750   6.0484140  38.0320080  71.0618580   6.7431620  43.6233100
  70.2478420   7.1728780  43.8858890  71.4692780   7.3550030  43.0102150
  73.1244020   4.7979310  30.5233370  73.3992860   5.7058190  30.3952590
  72.9354760   4.7341840  31.4595360  73.0209360   2.7348300  35.5162800
  72.6452960   1.9676230  35.0844090  72.2912480   3.1171000  36.0037730
  57.6105120   3.4135440  42.1371850  57.9778160   3.3262840  43.0167870
  57.0415940   2.6501990  42.0378710  72.4108980   1.8819820  45.1502320
  72.1795070   1.6532570  44.2500270  72.6713530   2.8019370  45.1047210
  71.1194630  11.4950220  37.1501370  71.7153700  11.1734790  36.4735790
  71.3772780  11.0222040  37.9414640  59.0257200   7.9268130  47.2992000
  58.9826830   7.5561040  48.1806460  59.1568210   8.8645700  47.4393820
  62.7263230   9.4827720  42.9001720  62.4854590   9.7502280  42.0132240
  63.6665870   9.6533450  42.9552580  73.9867390  11.5022100  43.7012360
  73.4925670  11.8990970  42.9839490  73.3780680  10.8771310  44.0949640
  58.8645230  10.8730380  44.4189780  58.2705550  10.7415080  45.1579820
  58.8569070  10.0368520  43.9531880  71.6706840  12.1445520  40.9799100
  71.2109810  12.8961330  40.6057120  71.0419300  11.4251990  40.9213900
  58.4957460   8.2388760  43.3697820  57.7691520   7.6194050  43.3023770
  58.5566610   8.6329370  42.4995900  62.1002560  10.4533760  40.1547230
  62.6167580   9.8421120  39.6295490  62.7499940  10.9562540  40.6458240
  64.8398060  11.3442250  40.9816210  65.1275870  11.0896550  40.1049220
  65.3521280  10.7919610  41.5721780  56.7787460  11.5563150  36.5794580
  56.6109500  10.9233830  37.2776470  55.9121970  11.7622550  36.2288770
  58.3850160  10.2496380  34.0244720  57.8597780  10.6304410  33.3206680
  58.3094740  10.8747150  34.7454430  64.9070420  12.2658350  48.3484410
  65.8337730  12.0302620  48.3920370  64.8920850  13.0930350  47.8670440
  73.1415480  11.8083920  35.3458660  73.3167670  11.1221660  34.7019580
  72.4437050  12.3330970  34.9535330  60.9843130  12.1978760  32.8993970
  61.7161950  11.9138040  32.3517860  61.2436800  11.9592040  33.7893350
  60.1457920   8.3143490  32.9040300  59.5166800   8.7828590  33.4526130
  60.2605750   7.4692710  33.3386490  71.4747980  11.4928210  48.1725450
  72.2673300  10.9977440  47.9651410  71.7681130  12.1718350  48.7801060
  65.7325680   4.1428170  20.9350770  64.9567780   3.6628610  21.2249340
  66.3838610   3.4633820  20.7606930  59.7491510   4.4547980  21.8126530
  58.9176390   4.1996690  22.2123040  60.3572490   4.5258750  22.5484450
  69.7533110   8.5488360  19.7149900  69.2914640   7.7775600  20.0437070
  70.5658660   8.5754430  20.2202350  59.7292770   8.4888070  22.0084550
  60.0320810   7.5985810  21.8294770  60.4736360   9.0458290  21.7806800
  65.9796420  10.8346370  19.3353890  65.3607860  11.2903870  18.7648330
  66.8348200  10.9897830  18.9343590  65.1734670   6.8185360  20.9420930
  65.1042950   5.8775300  20.7810060  65.9354530   6.9086770  21.5143500
  66.8459770   5.7185610  16.7285800  66.2277040   6.1835060  16.1648520
  67.3583020   6.4113090  17.1455310  61.7091530   5.2461480  23.4069400
  61.3760910   5.8730400  24.0490470  61.8858210   5.7723360  22.6271070
  60.9210630   7.2142280  25.2218580  61.5384630   7.8893360  24.9403030
  60.0603750   7.6230260  25.1306080  56.2142970   6.4042140  14.1025430
  55.8370950   6.8929240  13.3710330  56.4716040   7.0767420  14.7331960
  71.8388220   8.6781690  23.1373220  71.1551740   9.3480800  23.1289890
  72.3782510   8.8762340  22.3718080  69.3746960  10.5225820  21.8518400
  69.3874120  10.1188110  20.9840660  68.8222180  11.2973110  21.7479830
  70.6692380   7.2442040  16.9408570  70.5588710   6.3016370  17.0657990
  70.6660630   7.6057680  17.8271330  68.7732400   5.4255660  23.1801010
  69.1901190   5.2115770  22.3454470  69.4972220   5.6828450  23.7509630
  66.2112660   2.8707360  16.2971060  65.2841940   2.8044740  16.5259530
  66.3637480   3.8087490  16.1826300  72.7194500   3.8242880  23.2717250
  71.8913130   3.8935970  22.7967380  73.3144980   4.4097190  22.8033080
  70.2409950   4.4327660  16.8006310  69.6222370   4.0947210  16.1532610
  70.2234400   3.7887420  17.5085500  61.8169300   3.3972100  19.0790790
  61.4126300   2.6849350  18.5836690  61.9032420   3.0525340  19.9678830
  62.2851000   7.0839660  21.2430000  61.9879290   6.4785130  20.5637780
  63.2350820   7.1216970  21.1319360  70.3736610  10.6571530  24.9053100
  69.8967170  11.4643720  24.7125710  69.6898400  10.0049860  25.0579310
  61.3769430   6.8221350  27.8937800  60.4797960   7.0461320  28.1411200
  61.4022300   6.9456290  26.9449200  68.4174650   3.6714470  13.8079060
  68.8567930   2.8336900  13.6616880  69.1303070   4.3043870  13.8943200
  60.2040650   3.6934670  26.4695170  60.0648420   4.5657470  26.8382570
  59.3222010   3.3507480  26.3243110  66.5270030   8.6110540  17.7760300
  66.9665940   9.3534870  17.3615690  66.4656920   8.8537110  18.6999260
  62.0021000   9.6356370  28.6780320  61.9736430  10.0399320  27.8108750
  61.8385970   8.7066730  28.5151920  58.5173930   2.2917080  16.5797440
  58.3971530   3.0179170  15.9678710  58.2074820   1.5219990  16.1025350
  73.9535820  10.4183470  29.9744490  74.4295540  10.8966360  30.6533570
  74.5742980  10.3500960  29.2489990  56.1559300   5.4632220  22.3866080
  56.2339720   5.5980990  21.4421800  56.7700980   4.7548110  22.5794200
  57.4006930   7.1632410  18.7972260  56.9935010   7.3047000  17.9425860
  58.2919940   6.8792570  18.5943470  73.3569070   7.6096320  27.1344500
  73.4832130   7.3708200  26.2161680  73.3990450   6.7780860  27.6066580
  67.2185810  11.3124320  25.7039310  67.7330480  11.2232330  26.5061740
  66.3754890  11.6584020  25.9967220  69.1940210  11.5979660  15.1323310
  69.0341350  11.3082600  16.0305140  69.0286920  10.8219790  14.5968540
  61.6728590  11.3778190  16.9094930  61.4971070  10.4613730  16.6962730
  60.8184330  11.7365480  17.1492730  68.8966340   9.1067220  13.6921310
  68.2031500   9.1044510  13.0323590  69.6389200   8.6826540  13.2615480
  68.4616270  10.7329930  17.7669800  68.9173220   9.9519310  18.0808420
  68.8008790  11.4436750  18.3110980  56.2118820   6.5046390  24.9260540
  56.3749860   6.0351750  24.1079910  56.6771270   5.9969950  25.5909380
  62.7088620   1.9785800  13.2089620  62.1405520   1.5304050  12.5825530
  63.4177620   2.3378580  12.6754770  57.7857800   5.8797820  27.0856350
  57.4012590   5.2391490  27.6839310  58.0969990   6.5833940  27.6551080
  63.9354940   2.7274360  22.5664970  64.3025070   2.2532930  23.3126310
  63.7460000   3.6015930  22.9073310  61.7254310   1.7683000  24.8849180
  61.4211380   2.6474980  25.1099540  62.6800770   1.8282790  24.9206620
  60.2536100   5.9743990  15.4816030  59.4798360   5.4341610  15.3214750
  60.9830730   5.4550600  15.1433790  71.0124080   4.9709350  21.2742420
  71.7323200   5.4664640  20.8838530  70.8105900   4.2927240  20.6296290
  66.3942880   5.0418410  27.1611420  66.3280190   4.1214080  26.9069010
  65.7648020   5.1393850  27.8756060  60.2973500   5.6424370  19.1194840
  60.8152170   4.8392630  19.0651730  59.8457520   5.5803510  19.9611670
  65.1843000   6.9090650  14.3922140  65.5258700   7.6532880  13.8965460
  64.3555710   7.2221770  14.7546970  57.7818040   2.6085740  26.0320540
  57.4232980   3.2739590  26.6193880  57.4872600   1.7769290  26.4033160
  60.9831160   3.0669980  28.9160090  60.6831300   3.2127160  28.0187910
  61.7542400   2.5075270  28.8233480  66.3259610   7.8638980  26.9115220
  66.3404150   6.9319940  26.6934130  65.6184710   7.9498740  27.5504990
  71.4596680   2.0478800  13.1813830  71.3760400   2.4793020  12.3310270
  72.1790870   2.5077150  13.6140650  72.5370820   4.5046320  26.2583800
  71.8119010   5.0975100  26.0613190  73.0646280   4.4969860  25.4597170
  72.4883930   8.9021060  15.9095960  71.8460090   8.2476680  16.1839680
  72.1014590   9.3076150  15.1336630  68.0670410   6.2306490  19.7567650
  68.4194230   5.6334620  19.0969020  67.1832740   5.9050720  19.9275900
  64.1533690   6.9904180  17.1638060  64.8404820   7.5373390  17.5445650
  63.3666110   7.5344910  17.1987670  56.2926090   2.6077000  12.6555140
  57.1620940   2.8901800  12.9391060  55.8016410   3.4212870  12.5403950
  63.4560900   3.9950210  16.7763420  63.9123680   4.8055460  17.0023610
  63.1049110   3.6773350  17.6081910  65.7593510   9.5056550  24.0055720
  66.4035730   9.7115930  24.6829140  66.1222950   8.7444950  23.5526570
  67.0325590   7.5088900  22.7233170  67.6747820   6.8082060  22.8365340
  67.5574940   8.2887340  22.5430060  70.8781310   7.7937520  12.4472310
  70.6518890   7.0767960  13.0396950  70.4877510   7.5449960  11.6094060
  68.8063210   8.3083800  25.9269230  69.1419450   8.8950490  26.6047150
  67.8863550   8.1776510  26.1567020  56.6597340  11.8204380  13.2216770
  57.0194980  12.4193720  12.5674040  56.5189680  12.3664270  13.9951800
  70.4597560   5.7109460  14.1086470  70.1719260   6.1722150  14.8964350
  71.2549730   5.2507230  14.3770690  56.6439200  10.0859240  27.6959170
  56.7530320   9.1453980  27.5554560  55.9919760  10.3513990  27.0472900
  64.6351790   8.3575130  29.0957290  64.3148660   7.6384370  29.6402980
  63.9610150   9.0330200  29.1693350  62.6765960   9.2035580  14.0390440
  62.6676060   9.9365270  13.4234950  61.7564320   8.9567160  14.1317400
  58.2772600   4.4250470  14.7837200  57.6700550   5.1649370  14.7932500
  58.7521950   4.5149830  13.9575400  65.6625560   9.2663820  12.7015630
  65.7637540   9.0627810  11.7717610  64.7627300   9.0122100  12.9063410
  64.3043670  11.7850140  17.3963300  64.5585170  11.7471530  16.4742670
  63.3556150  11.6583470  17.3891550  70.3096250   2.7042020  18.9721810
  69.3686390   2.7192250  19.1469500  70.6240320   1.9177980  19.4182110
  60.2877890   4.3861620  12.5325770  61.0541160   4.2742980  13.0951200
  60.3652580   3.6899590  11.8802540  72.3121830   9.8750870  20.6476070
  72.4369250  10.6982040  21.1199880  73.1787390   9.6641600  20.3000220
  59.7839360  11.9682080  20.3193200  60.5201840  11.4197540  20.5901770
  60.1680280  12.8338090  20.1799190  56.6684840   8.0355650  16.1934710
  55.7424620   8.2776790  16.1840120  57.1341270   8.8629910  16.0719460
  58.7897640  11.1528150  29.5078780  59.5910370  11.4740200  29.9214180
  58.2749460  10.7923730  30.2298690  62.8941670  11.1412390  12.1418770
  63.6870280  11.4301220  11.6900560  62.3746020  10.7104560  11.4631250
  67.6262270   7.2608020  29.4554190  67.0200430   7.2839620  28.7149940
  67.3216380   6.5291060  29.9921440  69.0562640  10.9888310  28.0663600
  70.0084390  10.9046330  28.0163840  68.9090860  11.6530020  28.7397390
  71.9471840  10.3682520  13.5655510  71.6613350   9.9547660  12.7509690
  71.7491390  11.2970230  13.4456030  56.5095450   3.6401610  28.4514830
  57.0134470   3.0608890  29.0231060  55.7702870   3.9241840  28.9891200
  63.4119070   6.3615800  12.0061120  63.3069710   5.7468150  12.7322500
  63.2443290   5.8381690  11.2224130  63.5633390   5.0472600  27.9850350
  62.7979060   5.6157600  27.9005020  63.7449350   4.7548810  27.0918580
  66.6521800   5.4235830  12.6103110  66.1031900   5.8705130  13.2545850
  67.2741060   4.9185080  13.1340780  70.7056740   6.7777930  28.5425370
  71.4466210   7.1153690  28.0392830  69.9429420   6.9469990  27.9895140
  58.5418530   1.7831200  29.3464900  58.5823870   1.4845070  30.2550130
  59.3964030   2.1838810  29.1872420  62.3196920   4.3826750  14.5068410
  62.7413340   4.2166620  15.3499800  62.4447760   3.5726980  14.0123550
  64.8324560   3.4064360  11.7545510  65.3530220   2.6913380  11.3886660
  65.4792960   4.0450230  12.0546020  69.3802400   4.8292760  27.0780580
  69.7943420   4.9837840  27.9271000  68.4453400   4.9547980  27.2406360
  64.1417630   4.7813240  25.0476510  64.5605740   5.6245970  24.8752750
  63.2226260   4.9185280  24.8183290  66.4781530   2.5129420  26.4314350
  66.5977740   1.9170560  27.1709190  67.3375530   2.5499110  26.0115650
  68.8169430   3.0666610  25.0076860  68.2904650   3.5909230  24.4042000
  69.1600770   3.6994000  25.6386590  61.9925050  11.0866250  26.1634240
  61.4546140  11.8112310  25.8442940  62.2459010  10.6096590  25.3731580
  64.8487260  12.3217460  26.4220890  64.7745960  13.2252600  26.7293260
  63.9466100  12.0029360  26.3942960  65.3972590  11.4875970  14.0447250
  66.2923380  11.8260940  14.0666010  65.4290220  10.7655380  13.4171530
  59.0368750   6.8603020  12.2734250  59.4743620   7.4032690  12.9291830
  59.5216480   6.0349970  12.2830590  56.2514550   9.6492050  19.7254510
  56.5817560   8.7813110  19.4933150  56.6805550   9.8550570  20.5559470
  60.8476470   7.9801060  17.3856480  60.5472010   7.8566030  18.2860390
  60.7413960   7.1209650  16.9772210  56.7404760  10.5162640  22.4636140
  56.3035750  10.6963440  23.2960290  57.3082440  11.2737260  22.3217860
  72.3766940  10.0179640  26.7513450  71.7768930  10.0772200  26.0077370
  72.5060840   9.0784620  26.8810300  73.6168390   7.7597460  12.0883160
  72.7861350   7.8274110  12.5590390  73.7940220   8.6501580  11.7850020
  73.0724850   4.5044940  14.5917360  73.8343760   5.0741590  14.6977050
  73.0879220   3.9372140  15.3625670  56.5729190   3.0282870  18.8225020
  55.9178030   2.7594510  18.1784720  57.4107140   2.9187350  18.3727000
  74.0784820   5.3595040  19.4359290  74.4493650   4.5762360  19.0295260
  74.7186750   6.0484140  19.2576590  71.0618580   6.7431620  24.8489610
  70.2478420   7.1728780  25.1115400  71.4692780   7.3550030  24.2358660
  73.1244020   4.7979310  11.7489880  73.3992860   5.7058190  11.6209100
  72.9354760   4.7341840  12.6851870  73.0209360   2.7348300  16.7419310
  72.6452960   1.9676230  16.3100600  72.2912480   3.1171000  17.2294240
  57.6105120   3.4135440  23.3628360  57.9778160   3.3262840  24.2424380
  57.0415940   2.6501990  23.2635220  72.4108980   1.8819820  26.3758830
  72.1795070   1.6532570  25.4756780  72.6713530   2.8019370  26.3303720
  71.1194630  11.4950220  18.3757880  71.7153700  11.1734790  17.6992300
  71.3772780  11.0222040  19.1671150  59.0257200   7.9268130  28.5248510
  58.9826830   7.5561040  29.4062970  59.1568210   8.8645700  28.6650330
  62.7263230   9.4827720  24.1258230  62.4854590   9.7502280  23.2388750
  63.6665870   9.6533450  24.1809090  73.9867390  11.5022100  24.9268870
  73.4925670  11.8990970  24.2096000  73.3780680  10.8771310  25.3206150
  58.8645230  10.8730380  25.6446290  58.2705550  10.7415080  26.3836330
  58.8569070  10.0368520  25.1788390  71.6706840  12.1445520  22.2055610
  71.2109810  12.8961330  21.8313630  71.0419300  11.4251990  22.1470410
  58.4957460   8.2388760  24.5954330  57.7691520   7.6194050  24.5280280
  58.5566610   8.6329370  23.7252410  62.1002560  10.4533760  21.3803740
  62.6167580   9.8421120  20.8552000  62.7499940  10.9562540  21.8714750
  64.8398060  11.3442250  22.2072720  65.1275870  11.0896550  21.3305730
  65.3521280  10.7919610  22.7978290  56.7787460  11.5563150  17.8051090
  56.6109500  10.9233830  18.5032980  55.9121970  11.7622550  17.4545280
  58.3850160  10.2496380  15.2501230  57.8597780  10.6304410  14.5463190
  58.3094740  10.8747150  15.9710940  64.9070420  12.2658350  29.5740920
  65.8337730  12.0302620  29.6176880  64.8920850  13.0930350  29.0926950
  73.1415480  11.8083920  16.5715170  73.3167670  11.1221660  15.9276090
  72.4437050  12.3330970  16.1791840  60.9843130  12.1978760  14.1250480
  61.7161950  11.9138040  13.5774370  61.2436800  11.9592040  15.0149860
  60.1457920   8.3143490  14.1296810  59.5166800   8.7828590  14.6782640
  60.2605750   7.4692710  14.5643000  71.4747980  11.4928210  29.3981960
  72.2673300  10.9977440  29.1907920  71.7681130  12.1718350  30.0057570
  65.7325680   4.1428170   2.1607280  64.9567780   3.6628610   2.4505850
  66.3838610   3.4633820   1.9863440  59.7491510   4.4547980   3.0383040
  58.9176390   4.1996690   3.4379550  60.3572490   4.5258750   3.7740960
  59.7292770   8.4888070   3.2341060  60.0320810   7.5985810   3.0551280
  60.4736360   9.0458290   3.0063310  65.1734670   6.8185360   2.1677440
  65.1042950   5.8775300   2.0066570  65.9354530   6.9086770   2.7400010
  61.7091530   5.2461480   4.6325910  61.3760910   5.8730400   5.2746980
  61.8858210   5.7723360   3.8527580  60.9210630   7.2142280   6.4475090
  61.5384630   7.8893360   6.1659540  60.0603750   7.6230260   6.3562590
  71.8388220   8.6781690   4.3629730  71.1551740   9.3480800   4.3546400
  72.3782510   8.8762340   3.5974590  69.3746960  10.5225820   3.0774910
  69.3874120  10.1188110   2.2097170  68.8222180  11.2973110   2.9736340
  68.7732400   5.4255660   4.4057520  69.1901190   5.2115770   3.5710980
  69.4972220   5.6828450   4.9766140  72.7194500   3.8242880   4.4973760
  71.8913130   3.8935970   4.0223890  73.3144980   4.4097190   4.0289590
  62.2851000   7.0839660   2.4686510  61.9879290   6.4785130   1.7894290
  63.2350820   7.1216970   2.3575870  70.3736610  10.6571530   6.1309610
  69.8967170  11.4643720   5.9382220  69.6898400  10.0049860   6.2835820
  61.3769430   6.8221350   9.1194310  60.4797960   7.0461320   9.3667710
  61.4022300   6.9456290   8.1705710  60.2040650   3.6934670   7.6951680
  60.0648420   4.5657470   8.0639080  59.3222010   3.3507480   7.5499620
  62.0021000   9.6356370   9.9036830  61.9736430  10.0399320   9.0365260
  61.8385970   8.7066730   9.7408430  73.9535820  10.4183470  11.2001000
  74.4295540  10.8966360  11.8790080  74.5742980  10.3500960  10.4746500
  56.1559300   5.4632220   3.6122590  56.2339720   5.5980990   2.6678310
  56.7700980   4.7548110   3.8050710  73.3569070   7.6096320   8.3601010
  73.4832130   7.3708200   7.4418190  73.3990450   6.7780860   8.8323090
  67.2185810  11.3124320   6.9295820  67.7330480  11.2232330   7.7318250
  66.3754890  11.6584020   7.2223730  56.2118820   6.5046390   6.1517050
  56.3749860   6.0351750   5.3336420  56.6771270   5.9969950   6.8165890
  57.7857800   5.8797820   8.3112860  57.4012590   5.2391490   8.9095820
  58.0969990   6.5833940   8.8807590  63.9354940   2.7274360   3.7921480
  64.3025070   2.2532930   4.5382820  63.7460000   3.6015930   4.1329820
  61.7254310   1.7683000   6.1105690  61.4211380   2.6474980   6.3356050
  62.6800770   1.8282790   6.1463130  71.0124080   4.9709350   2.4998930
  71.7323200   5.4664640   2.1095040  70.8105900   4.2927240   1.8552800
  66.3942880   5.0418410   8.3867930  66.3280190   4.1214080   8.1325520
  65.7648020   5.1393850   9.1012570  57.7818040   2.6085740   7.2577050
  57.4232980   3.2739590   7.8450390  57.4872600   1.7769290   7.6289670
  60.9831160   3.0669980  10.1416600  60.6831300   3.2127160   9.2444420
  61.7542400   2.5075270  10.0489990  66.3259610   7.8638980   8.1371730
  66.3404150   6.9319940   7.9190640  65.6184710   7.9498740   8.7761500
  72.5370820   4.5046320   7.4840310  71.8119010   5.0975100   7.2869700
  73.0646280   4.4969860   6.6853680  65.7593510   9.5056550   5.2312230
  66.4035730   9.7115930   5.9085650  66.1222950   8.7444950   4.7783080
  67.0325590   7.5088900   3.9489680  67.6747820   6.8082060   4.0621850
  67.5574940   8.2887340   3.7686570  68.8063210   8.3083800   7.1525740
  69.1419450   8.8950490   7.8303660  67.8863550   8.1776510   7.3823530
  56.6439200  10.0859240   8.9215680  56.7530320   9.1453980   8.7811070
  55.9919760  10.3513990   8.2729410  64.6351790   8.3575130  10.3213800
  64.3148660   7.6384370  10.8659490  63.9610150   9.0330200  10.3949860
  72.3121830   9.8750870   1.8732580  72.4369250  10.6982040   2.3456390
  73.1787390   9.6641600   1.5256730  58.7897640  11.1528150  10.7335290
  59.5910370  11.4740200  11.1470690  58.2749460  10.7923730  11.4555200
  67.6262270   7.2608020  10.6810700  67.0200430   7.2839620   9.9406450
  67.3216380   6.5291060  11.2177950  69.0562640  10.9888310   9.2920110
  70.0084390  10.9046330   9.2420350  68.9090860  11.6530020   9.9653900
  56.5095450   3.6401610   9.6771340  57.0134470   3.0608890  10.2487570
  55.7702870   3.9241840  10.2147710  63.5633390   5.0472600   9.2106860
  62.7979060   5.6157600   9.1261530  63.7449350   4.7548810   8.3175090
  70.7056740   6.7777930   9.7681880  71.4466210   7.1153690   9.2649340
  69.9429420   6.9469990   9.2151650  58.5418530   1.7831200  10.5721410
  58.5823870   1.4845070  11.4806640  59.3964030   2.1838810  10.4128930
  69.3802400   4.8292760   8.3037090  69.7943420   4.9837840   9.1527510
  68.4453400   4.9547980   8.4662870  64.1417630   4.7813240   6.2733020
  64.5605740   5.6245970   6.1009260  63.2226260   4.9185280   6.0439800
  66.4781530   2.5129420   7.6570860  66.5977740   1.9170560   8.3965700
  67.3375530   2.5499110   7.2372160  68.8169430   3.0666610   6.2333370
  68.2904650   3.5909230   5.6298510  69.1600770   3.6994000   6.8643100
  61.9925050  11.0866250   7.3890750  61.4546140  11.8112310   7.0699450
  62.2459010  10.6096590   6.5988090  64.8487260  12.3217460   7.6477400
  64.7745960  13.2252600   7.9549770  63.9466100  12.0029360   7.6199470
  56.7404760  10.5162640   3.6892650  56.3035750  10.6963440   4.5216800
  57.3082440  11.2737260   3.5474370  72.3766940  10.0179640   7.9769960
  71.7768930  10.0772200   7.2333880  72.5060840   9.0784620   8.1066810
  71.0618580   6.7431620   6.0746120  70.2478420   7.1728780   6.3371910
  71.4692780   7.3550030   5.4615170  57.6105120   3.4135440   4.5884870
  57.9778160   3.3262840   5.4680890  57.0415940   2.6501990   4.4891730
  72.4108980   1.8819820   7.6015340  72.1795070   1.6532570   6.7013290
  72.6713530   2.8019370   7.5560230  59.0257200   7.9268130   9.7505020
  58.9826830   7.5561040  10.6319480  59.1568210   8.8645700   9.8906840
  62.7263230   9.4827720   5.3514740  62.4854590   9.7502280   4.4645260
  63.6665870   9.6533450   5.4065600  73.9867390  11.5022100   6.1525380
  73.4925670  11.8990970   5.4352510  73.3780680  10.8771310   6.5462660
  58.8645230  10.8730380   6.8702800  58.2705550  10.7415080   7.6092840
  58.8569070  10.0368520   6.4044900  71.6706840  12.1445520   3.4312120
  71.2109810  12.8961330   3.0570140  71.0419300  11.4251990   3.3726920
  58.4957460   8.2388760   5.8210840  57.7691520   7.6194050   5.7536790
  58.5566610   8.6329370   4.9508920  62.1002560  10.4533760   2.6060250
  62.6167580   9.8421120   2.0808510  62.7499940  10.9562540   3.0971260
  64.8398060  11.3442250   3.4329230  65.1275870  11.0896550   2.5562240
  65.3521280  10.7919610   4.0234800  64.9070420  12.2658350  10.7997430
  65.8337730  12.0302620  10.8433390  64.8920850  13.0930350  10.3183460
  71.4747980  11.4928210  10.6238470  72.2673300  10.9977440  10.4164430
  71.7681130  12.1718350  11.2314080  48.8264150  96.2366600  56.6028480
  48.7458200  95.3221210  56.3320190  48.4128570  96.7333670  55.8968190
  39.3839970  93.2867320  53.1455900  38.4956670  93.6283290  53.0435780
  39.6681160  93.0867640  52.2536730  41.5601360  91.8698820  54.1794280
  41.6668110  92.7702550  54.4863040  40.6493720  91.8216790  53.8888930
  51.2120470  90.9923630  55.6505180  52.0330090  90.5020200  55.6930660
  51.2454550  91.5821290  56.4037020  45.0488410  88.6775980  57.1097920
  45.3563390  88.1222870  56.3933420  44.1189110  88.8120440  56.9270910
  47.4369170  96.7424810  53.8458040  46.5098450  96.6762190  54.0746510
  47.5893990  97.6804940  53.7313280  47.4238250  93.0141810  50.8425200
  46.4841920  93.1755770  50.9277660  47.7421510  93.7327490  50.2961190
  51.4666460  98.3045110  54.3493290  50.8478880  97.9664660  53.7019590
  51.4490910  97.6604870  55.0572480  43.0425810  97.2689550  56.6277770
  42.6382810  96.5566800  56.1323670  43.1288930  96.9242790  57.5165810
  49.6431160  97.5431920  51.3566040  50.0824440  96.7054350  51.2103860
  50.3559580  98.1761320  51.4430180  53.2248300  88.7974730  49.6707080
  52.9120960  88.8901560  50.5706150  53.9860770  89.3755760  49.6204510
  39.7430440  96.1634530  54.1284420  39.6228040  96.8896620  53.5165690
  39.4331330  95.3937440  53.6512330  42.2094100  89.5069600  57.5108090
  41.7662250  90.2879140  57.1792610  42.7679090  89.8299490  58.2179030
  45.3252920  89.1280300  52.3913920  44.7007100  89.1240170  53.1167230
  45.2383040  88.2611260  51.9949890  42.0008320  94.6303170  55.2389340
  41.7749240  94.4140340  56.1435960  41.2200850  95.0631630  54.8935310
  49.2306080  94.6366540  53.8379990  48.6314970  95.3602340  53.6543610
  49.7785690  94.5743320  53.0556440  47.8370950  93.2730080  55.8683270
  48.2300520  93.5902280  55.0551960  48.1987800  92.3941960  55.9827790
  37.0605350  93.8051000  49.3016190  36.9780020  94.7481760  49.4431180
  36.7088410  93.6625910  48.4228540  44.8603480  92.5390030  58.3686540
  44.8639540  92.0979980  57.5191080  45.7554600  92.8607360  58.4758360
  40.7105860  92.4216520  57.3280750  40.3705910  92.8991750  58.0847800
  39.9483180  91.9681640  56.9681850  44.9223630  93.5402110  51.3593300
  45.0436450  93.4988590  52.3079120  44.5372140  94.4026260  51.2040030
  43.9345130  95.8503250  50.7576600  43.3662030  95.4021500  50.1312510
  44.6434130  96.2096030  50.2241750  38.0251940  91.3435500  56.2445420
  37.7398860  90.9791170  57.0824040  37.9630800  90.6115960  55.6308560
  47.6990530  90.2364760  52.9658790  46.8855140  89.7377930  52.8904100
  47.5052480  91.0763010  52.5495140  50.4138920  94.6084410  51.2620950
  51.3018540  94.9201640  51.0872290  50.3844010  93.7356660  50.8701530
  52.6853190  95.9196250  50.7300810  52.6016910  96.3510470  49.8797250
  53.4047380  96.3794600  51.1627630  37.5182600  96.4794450  50.2042120
  38.3877450  96.7619250  50.4878040  37.0272920  97.2930320  50.0890930
  44.6817410  97.8667660  54.3250400  45.1380190  98.6772910  54.5510590
  44.3305620  97.5490800  55.1568890  40.5829190  88.2105310  54.7972920
  40.4543820  88.2023210  55.7457840  39.7591210  88.5488400  54.4463930
  52.4423930  91.4175680  52.8168630  51.8137090  91.5221350  52.1026860
  51.9475850  91.6372460  53.6062510  44.4107960  93.6961630  54.2326510
  43.7024110  94.1647970  54.6740120  44.6952440  93.0383640  54.8671700
  48.4423390  90.4212290  55.6722300  48.3191170  90.4398420  54.7231810
  49.3907950  90.4691230  55.7920700  42.6142980  92.0046710  51.6077220
  43.4633510  92.4416860  51.5417410  42.2474250  92.3166970  52.4349280
  51.5352760  96.5759470  56.5208790  50.5942900  96.5909700  56.6956480
  51.8496830  95.7895430  56.9669090  41.5134400  98.2579070  50.0812750
  42.2797670  98.1460430  50.6438180  41.5909090  97.5617040  49.4289520
  40.2081160  95.6904140  50.7645640  40.2884750  94.7431650  50.8763040
  41.1000910  96.0211020  50.8706300  43.5453430  98.2544200  52.0555390
  43.9669850  98.0884070  52.8986780  43.6704270  97.4444430  51.5610530
  46.0581070  97.2781810  49.3032490  46.5786730  96.5630830  48.9373640
  46.7049470  97.9167680  49.6033000  42.4412330  94.3277430  49.0013550
  42.2401390  93.4644790  49.3626890  42.2704380  94.2410790  48.0635150
  49.9200640  89.1385660  51.5300430  50.2002930  88.2953560  51.8859850
  49.1466370  89.3708770  52.0439180  41.2395130  91.4278050  48.9891430
  41.5421030  91.4345480  48.0810580  41.9789720  91.0775910  49.4859090
  44.4580060  90.3712670  49.9747630  44.1102060  89.6936660  49.3950080
  44.6592830  89.9102180  50.7891020  37.7985700  96.9000320  56.3712000
  37.1434540  96.6311960  55.7271700  38.6363650  96.7904800  55.9213980
  50.7476140  91.6941610  50.5930490  51.1661020  91.5072590  49.7527150
  50.4412200  90.8420660  50.9033420  54.2465870  96.6065750  54.2906290
  53.8709470  95.8393680  53.8587580  53.5168990  96.9888450  54.7781220
  37.0123780  94.1099250  52.3137330  36.1087860  94.3729450  52.1388990
  37.4964400  94.3810420  51.5337290  53.5216830  94.8323240  57.5913530
  54.0454310  94.3385890  56.9603700  54.1076250  94.9673600  58.3361100
  39.5550990  93.1664790  50.2231710  40.2642690  92.7448010  49.7378990
  38.8390930  93.2340020  49.5915060  39.2025150  89.2204120  49.2634360
  39.9253280  89.7613060  49.5815580  39.4749670  88.9467540  48.3875900
  53.0116800  94.0896590  53.5305940  53.5075920  93.8567460  54.3154820
  52.8132870  93.2508430  53.1143580  54.4403960  92.7257540  56.0643620
  54.3303240  92.5713580  57.0025890  55.2011550  92.1978480  55.8219030
  55.3294230  90.5565460  49.3049760  56.2543540  90.4246640  49.0968050
  55.3070020  90.6358280  50.2586210  55.4032720  91.3276120  51.9306470
  54.6084220  91.2621240  52.4599380  55.6076000  92.2626760  51.9191820
  51.8352650  89.6573000  58.3805300  52.2760740  89.6018100  57.5326900
  51.5660240  90.5731010  58.4515480  53.6991220  89.2888240  56.3914120
  53.6379620  88.3449460  56.2445140  54.4783250  89.3968330  56.9367580
  38.6271990  89.2597380  52.8569930  39.3851350  89.3726260  52.2833960
  38.1649160  90.0966580  52.8113360  45.1685800  91.3736650  55.8472240
  44.3560310  90.9993540  55.5068120  45.6727440  90.6181730  56.1493430
  49.6710780  88.0379100  57.0855310  50.2740150  88.6099310  57.5603830
  48.9303770  88.6018540  56.8629210  52.8145380  88.4400660  52.3595590
  53.0096010  89.3384110  52.6263020  52.0275250  88.2087740  52.8528540
  40.9997140  89.7861430  51.3971900  41.5289900  88.9991230  51.2679850
  41.6325460  90.4652620  51.6307430  43.1934980  89.5236570  54.4517290
  42.5637720  88.8223880  54.6187420  42.6540120  90.2840700  54.2350450
  48.8264150  96.2366600  37.8284990  48.7458200  95.3221210  37.5576700
  48.4128570  96.7333670  37.1224700  46.9582190  98.0145620  39.7094260
  46.1824290  97.5346060  39.9992830  47.6095120  97.3351270  39.5350420
  40.9748020  98.3265430  40.5870020  40.1432900  98.0714140  40.9866530
  41.5829000  98.3976200  41.3227940  39.3839970  93.2867320  34.3712410
  38.4956670  93.6283290  34.2692290  39.6681160  93.0867640  33.4793240
  37.3472980  95.8872970  40.2552110  37.9189090  95.1195170  40.2555750
  37.3474520  96.1861730  39.3458720  38.5897850  91.2957330  42.0421040
  38.4100690  90.3983080  42.3223800  38.1877930  91.8429200  42.7167990
  47.4296350  93.4973190  39.9433350  47.8061170  92.6245070  39.8307020
  47.3315860  93.8331890  39.0523790  41.5601360  91.8698820  35.4050790
  41.6668110  92.7702550  35.7119550  40.6493720  91.8216790  35.1145440
  51.2120470  90.9923630  36.8761690  52.0330090  90.5020200  36.9187170
  51.2454550  91.5821290  37.6293530  39.2084520  93.7917830  40.6503380
  39.8894630  94.0556200  41.2690780  38.8932570  92.9518700  40.9841390
  43.4009090  94.8385190  39.7375970  43.9087310  95.3366160  40.3780990
  43.9322330  94.0620390  39.5615330  55.5020020  93.0090380  43.4405320
  54.7972190  93.3972090  42.9220430  55.7677940  93.7040670  44.0426250
  41.6845190  89.4783750  44.0039390  41.6863630  89.9956140  43.1985290
  40.8549500  89.0013930  43.9809320  51.4481950  92.9324010  39.6489230
  50.7437520  93.2208900  40.2292340  51.8094110  93.7424120  39.2888790
  41.3660520  91.1893710  42.0109840  41.7077330  92.0335760  41.7163710
  40.4276330  91.3377450  42.1275180  54.5168870  92.3778800  40.0398440
  53.5693780  92.4117780  40.1713870  54.8418860  93.1917750  40.4247800
  45.0488410  88.6775980  38.3354430  45.3563390  88.1222870  37.6189930
  44.1189110  88.8120440  38.1527420  47.4369170  96.7424810  35.0714550
  46.5098450  96.6762190  35.3003020  47.5893990  97.6804940  34.9569790
  47.4238250  93.0141810  32.0681710  46.4841920  93.1755770  32.1534170
  47.7421510  93.7327490  31.5217700  53.9451010  97.6960330  42.0460740
  53.1169640  97.7653420  41.5710870  54.5401490  98.2814640  41.5776570
  51.4666460  98.3045110  35.5749800  50.8478880  97.9664660  34.9276100
  51.4490910  97.6604870  36.2828990  50.9093020  94.4829650  42.9915610
  50.4964200  95.3083360  43.2455600  50.1768970  93.8974690  42.7991970
  43.0425810  97.2689550  37.8534280  42.6382810  96.5566800  37.3580180
  43.1288930  96.9242790  38.7422320  41.7554430  94.0432760  41.6333320
  42.3069020  94.1528100  40.8586570  42.2697940  94.4170360  42.3488550
  49.6431160  97.5431920  32.5822550  50.0824440  96.7054350  32.4360370
  50.3559580  98.1761320  32.6686690  41.4297160  97.5652120  45.2438660
  41.2904930  98.4374920  45.6126060  40.5478520  97.2224930  45.0986600
  53.2248300  88.7974730  30.8963590  52.9120960  88.8901560  31.7962660
  53.9860770  89.3755760  30.8461020  39.7430440  96.1634530  35.3540930
  39.6228040  96.8896620  34.7422200  39.4331330  95.3937440  34.8768840
  54.4349590  93.5346230  46.8737730  53.8193860  94.0425900  46.3453190
  54.1146010  92.6344560  46.8163670  42.2094100  89.5069600  38.7364600
  41.7662250  90.2879140  38.4049120  42.7679090  89.8299490  39.4435540
  46.4963910  92.3738120  44.3399920  46.0343280  92.5821140  45.1519860
  46.0942020  91.5597470  44.0370590  51.4968420  93.5947070  45.4696580
  50.6462010  93.2952820  45.7905650  51.3370210  93.8389080  44.5580400
  48.5918130  95.0948820  47.5695370  48.9171540  94.2612570  47.2297600
  49.3798460  95.6177340  47.7173700  45.3252920  89.1280300  33.6170430
  44.7007100  89.1240170  34.3423740  45.2383040  88.2611260  33.2206400
  44.2470000  90.0516930  40.5954200  44.5442330  90.9579760  40.5146220
  44.7955560  89.5635710  39.9813770  42.0008320  94.6303170  36.4645850
  41.7749240  94.4140340  37.3692470  41.2200850  95.0631630  36.1191820
  49.2306080  94.6366540  35.0636500  48.6314970  95.3602340  34.8800120
  49.7785690  94.5743320  34.2812950  44.4407530  95.5288750  47.1306120
  44.3451130  94.5883480  46.9806520  45.2839510  95.7503820  46.7354190
  47.8370950  93.2730080  37.0939780  48.2300520  93.5902280  36.2808470
  48.1987800  92.3941960  37.2084300  39.5718070  91.9402420  45.2839900
  39.1781460  92.7877630  45.4912680  38.8836470  91.3028790  45.4748540
  46.1463120  92.0237390  48.3536640  45.4561440  91.8309590  48.9882730
  46.8895420  92.3072030  48.8860940  36.8735120  89.8630880  39.3169980
  36.5848170  90.4333740  40.0294960  37.6180880  89.3835330  39.6801210
  37.0605350  93.8051000  30.5272700  36.9780020  94.7481760  30.6687690
  36.7088410  93.6625910  29.6485050  48.4226090  95.8635830  41.1890560
  47.6907210  96.3722640  41.5380660  48.0250430  95.0465810  40.8879340
  44.8603480  92.5390030  39.5943050  44.8639540  92.0979980  38.7447590
  45.7554600  92.8607360  39.7014870  40.7105860  92.4216520  38.5537260
  40.3705910  92.8991750  39.3104310  39.9483180  91.9681640  38.1938360
  44.9223630  93.5402110  32.5849810  45.0436450  93.4988590  33.5335630
  44.5372140  94.4026260  32.4296540  48.8852000  91.3169510  40.6013500
  48.9024740  91.7678160  41.4455350  48.6367580  90.4175150  40.8146940
  43.9345130  95.8503250  31.9833110  43.3662030  95.4021500  31.3569020
  44.6434130  96.2096030  31.4498260  52.3122750  88.7301690  46.4399880
  52.6368520  87.9991350  46.9657860  52.3479260  88.4115330  45.5380870
  45.1611450  96.5991810  41.3408460  45.5281580  96.1250380  42.0869800
  44.9716510  97.4733380  41.6816800  38.0251940  91.3435500  37.4701930
  37.7398860  90.9791170  38.3080550  37.9630800  90.6115960  36.8565070
  42.9510820  95.6400450  43.6592670  42.6467890  96.5192430  43.8843030
  43.9057280  95.7000240  43.6950110  47.6990530  90.2364760  34.1915300
  46.8855140  89.7377930  34.1160610  47.5052480  91.0763010  33.7751650
  50.4138920  94.6084410  32.4877460  51.3018540  94.9201640  32.3128800
  50.3844010  93.7356660  32.0958040  39.0074550  96.4803190  44.8064030
  38.6489490  97.1457040  45.3937370  38.7129110  95.6486740  45.1776650
  42.2087670  96.9387430  47.6903580  41.9087810  97.0844610  46.7931400
  42.9798910  96.3792720  47.5976970  52.6853190  95.9196250  31.9557320
  52.6016910  96.3510470  31.1053760  53.4047380  96.3794600  32.3884140
  37.5182600  96.4794450  31.4298630  38.3877450  96.7619250  31.7134550
  37.0272920  97.2930320  31.3147440  44.6817410  97.8667660  35.5506910
  45.1380190  98.6772910  35.7767100  44.3305620  97.5490800  36.3825400
  40.5829190  88.2105310  36.0229430  40.4543820  88.2023210  36.9714350
  39.7591210  88.5488400  35.6720440  37.5823120  89.9696430  45.4836130
  36.8681640  90.1693350  46.0888740  38.0018160  89.1936000  45.8550930
  49.0761900  92.4618740  43.2337580  49.4442720  91.6413950  43.5617150
  48.2160100  92.5220630  43.6493230  52.4423930  91.4175680  34.0425140
  51.8137090  91.5221350  33.3283370  51.9475850  91.6372460  34.8319020
  44.4107960  93.6961630  35.4583020  43.7024110  94.1647970  35.8996630
  44.6952440  93.0383640  36.0928210  46.0363890  95.1158330  43.4575550
  46.5349140  95.5904150  44.1227400  46.1786840  94.1921850  43.6645580
  48.4423390  90.4212290  36.8978810  48.3191170  90.4398420  35.9488320
  49.3907950  90.4691230  37.0177210  42.6142980  92.0046710  32.8333730
  43.4633510  92.4416860  32.7673920  42.2474250  92.3166970  33.6605790
  53.2430750  91.3326290  44.3003940  52.7404350  92.0731690  44.6397750
  54.0587410  91.7210290  43.9840730  51.5352760  96.5759470  37.7465300
  50.5942900  96.5909700  37.9212990  51.8496830  95.7895430  38.1925600
  41.5134400  98.2579070  31.3069260  42.2797670  98.1460430  31.8694690
  41.5909090  97.5617040  30.6546030  40.2081160  95.6904140  31.9902150
  40.2884750  94.7431650  32.1019550  41.1000910  96.0211020  32.0962810
  37.7351960  97.5119060  47.2258320  38.2390980  96.9326340  47.7974550
  36.9959380  97.7959290  47.7634690  39.7675040  95.6548650  48.1208390
  39.8080380  95.3562520  49.0293620  40.6220540  96.0556260  47.9615910
  43.5453430  98.2544200  33.2811900  43.9669850  98.0884070  34.1243290
  43.6704270  97.4444430  32.7867040  41.7080850  94.2340750  46.0882880
  41.1777310  93.7431700  45.4606220  42.3768920  94.6624950  45.5540810
  46.0581070  97.2781810  30.5289000  46.5786730  96.5630830  30.1630150
  46.7049470  97.9167680  30.8289510  51.0781080  96.0406370  47.8563220
  51.6601850  95.2858690  47.7683700  51.2542850  96.5713810  47.0794700
  42.1953150  91.2003120  46.1680170  42.1010020  90.5823870  45.4431040
  41.6150540  91.9269410  45.9410080  44.9614590  89.7576360  43.2007560
  44.5131890  89.7800620  42.3553110  44.3279790  89.3595380  43.7977860
  47.7038040  96.3846870  45.2057840  47.8234250  95.7888010  45.9452680
  48.5632040  96.4216560  44.7859140  50.0425940  96.9384060  43.7820350
  49.5161160  97.4626680  43.1785490  50.3857280  97.5711450  44.4130080
  42.4412330  94.3277430  30.2270060  42.2401390  93.4644790  30.5883400
  42.2704380  94.2410790  29.2891660  44.4706810  92.9268220  46.4633660
  45.0606500  92.6184070  47.1511480  43.6527050  92.4547970  46.6193560
  49.2900240  92.5434030  46.6966680  48.6015760  91.8815570  46.6316670
  50.0106260  92.0972300  47.1415140  49.9200640  89.1385660  32.7556940
  50.2002930  88.2953560  33.1116360  49.1466370  89.3708770  33.2695690
  41.2395130  91.4278050  30.2147940  41.5421030  91.4345480  29.3067090
  41.9789720  91.0775910  30.7115600  44.4580060  90.3712670  31.2004140
  44.1102060  89.6936660  30.6206590  44.6592830  89.9102180  32.0147530
  37.7985700  96.9000320  37.5968510  37.1434540  96.6311960  36.9528210
  38.6363650  96.7904800  37.1470490  50.7476140  91.6941610  31.8187000
  51.1661020  91.5072590  30.9783660  50.4412200  90.8420660  32.1289930
  54.2465870  96.6065750  35.5162800  53.8709470  95.8393680  35.0844090
  53.5168990  96.9888450  36.0037730  38.8361630  97.2852890  42.1371850
  39.2034670  97.1980290  43.0167870  38.2672450  96.5219440  42.0378710
  53.6365490  95.7537270  45.1502320  53.4051580  95.5250020  44.2500270
  53.8970040  96.6736820  45.1047210  38.3877630  94.1961980  46.0430270
  37.4933680  94.1628740  46.3823980  38.9275180  94.3948770  46.8081520
  52.0753560  90.9793700  47.9282020  52.9523740  90.9877100  48.3116020
  52.0874400  90.2424540  47.3174370  37.0123780  94.1099250  33.5393840
  36.1087860  94.3729450  33.3645500  37.4964400  94.3810420  32.7593800
  53.5216830  94.8323240  38.8170040  54.0454310  94.3385890  38.1860210
  54.1076250  94.9673600  39.5617610  53.7006550  94.9163110  42.3389590
  52.7509260  94.8826650  42.4534580  53.8819560  95.8263220  42.1039360
  39.5550990  93.1664790  31.4488220  40.2642690  92.7448010  30.9635500
  38.8390930  93.2340020  30.8171570  39.2025150  89.2204120  30.4890870
  39.9253280  89.7613060  30.8072090  39.4749670  88.9467540  29.6132410
  53.0116800  94.0896590  34.7562450  53.5075920  93.8567460  35.5411330
  52.8132870  93.2508430  34.3400090  38.8917340  88.4710310  40.3913490
  39.5393530  87.9207690  39.9508650  39.3119180  88.7253460  41.2129300
  54.4403960  92.7257540  37.2900130  54.3303240  92.5713580  38.2282400
  55.2011550  92.1978480  37.0475540  52.7869680  88.6651670  43.7483130
  53.4241900  89.2785810  44.1142320  52.9344570  88.7012330  42.8032360
  55.3294230  90.5565460  30.5306270  56.2543540  90.4246640  30.3224560
  55.3070020  90.6358280  31.4842720  55.4032720  91.3276120  33.1562980
  54.6084220  91.2621240  33.6855890  55.6076000  92.2626760  33.1448330
  38.6449340  88.6265980  43.1338810  38.2964160  89.0829800  43.8996990
  38.3137040  87.7323110  43.2161240  46.1574160  89.8177860  46.6558230
  46.0963050  90.4099690  47.4053640  47.0974540  89.7103820  46.5108490
  48.7948720  89.4747920  46.2950520  49.4089130  89.7927210  45.6331600
  49.3398280  88.9896510  46.9146380  39.3169980  88.1542180  46.4089580
  39.8652970  87.9730230  45.6455690  39.3825290  87.3636290  46.9445890
  49.5356760  88.0380060  42.6219810  48.6616600  88.3715170  42.4192740
  49.4267510  87.5653240  43.4471680  50.4428740  90.2450930  44.0061530
  50.1142100  89.4302690  43.6263260  51.3911040  90.2020740  43.8827220
  47.2831580  88.9549900  41.5612720  46.5003370  89.4295400  41.8409480
  46.9894510  88.0504730  41.4525900  51.8352650  89.6573000  39.6061810
  52.2760740  89.6018100  38.7583410  51.5660240  90.5731010  39.6771990
  53.6991220  89.2888240  37.6170630  53.6379620  88.3449460  37.4701650
  54.4783250  89.3968330  38.1624090  38.6271990  89.2597380  34.0826440
  39.3851350  89.3726260  33.5090470  38.1649160  90.0966580  34.0369870
  45.1685800  91.3736650  37.0728750  44.3560310  90.9993540  36.7324630
  45.6727440  90.6181730  37.3749940  49.6710780  88.0379100  38.3111820
  50.2740150  88.6099310  38.7860340  48.9303770  88.6018540  38.0885720
  52.8145380  88.4400660  33.5852100  53.0096010  89.3384110  33.8519530
  52.0275250  88.2087740  34.0785050  40.9997140  89.7861430  32.6228410
  41.5289900  88.9991230  32.4936360  41.6325460  90.4652620  32.8563940
  43.1934980  89.5236570  35.6773800  42.5637720  88.8223880  35.8443930
  42.6540120  90.2840700  35.4606960  43.3190540  88.8020550  48.1126290
  43.0374810  89.3054150  47.3487110  43.7010240  88.0042300  47.7468420
  49.9206000  88.2174130  48.6906760  49.8071450  88.5368740  49.5858280
  50.7375740  88.6186640  48.3944040  48.8264150  96.2366600  19.0541500
  48.7458200  95.3221210  18.7833210  48.4128570  96.7333670  18.3481210
  46.9582190  98.0145620  20.9350770  46.1824290  97.5346060  21.2249340
  47.6095120  97.3351270  20.7606930  40.9748020  98.3265430  21.8126530
  40.1432900  98.0714140  22.2123040  41.5829000  98.3976200  22.5484450
  39.3839970  93.2867320  15.5968920  38.4956670  93.6283290  15.4948800
  39.6681160  93.0867640  14.7049750  37.3472980  95.8872970  21.4808620
  37.9189090  95.1195170  21.4812260  37.3474520  96.1861730  20.5715230
  38.5897850  91.2957330  23.2677550  38.4100690  90.3983080  23.5480310
  38.1877930  91.8429200  23.9424500  47.4296350  93.4973190  21.1689860
  47.8061170  92.6245070  21.0563530  47.3315860  93.8331890  20.2780300
  41.5601360  91.8698820  16.6307300  41.6668110  92.7702550  16.9376060
  40.6493720  91.8216790  16.3401950  51.2120470  90.9923630  18.1018200
  52.0330090  90.5020200  18.1443680  51.2454550  91.5821290  18.8550040
  39.2084520  93.7917830  21.8759890  39.8894630  94.0556200  22.4947290
  38.8932570  92.9518700  22.2097900  43.4009090  94.8385190  20.9632480
  43.9087310  95.3366160  21.6037500  43.9322330  94.0620390  20.7871840
  55.5020020  93.0090380  24.6661830  54.7972190  93.3972090  24.1476940
  55.7677940  93.7040670  25.2682760  41.6845190  89.4783750  25.2295900
  41.6863630  89.9956140  24.4241800  40.8549500  89.0013930  25.2065830
  51.4481950  92.9324010  20.8745740  50.7437520  93.2208900  21.4548850
  51.8094110  93.7424120  20.5145300  41.3660520  91.1893710  23.2366350
  41.7077330  92.0335760  22.9420220  40.4276330  91.3377450  23.3531690
  54.5168870  92.3778800  21.2654950  53.5693780  92.4117780  21.3970380
  54.8418860  93.1917750  21.6504310  45.0488410  88.6775980  19.5610940
  45.3563390  88.1222870  18.8446440  44.1189110  88.8120440  19.3783930
  47.4369170  96.7424810  16.2971060  46.5098450  96.6762190  16.5259530
  47.5893990  97.6804940  16.1826300  47.4238250  93.0141810  13.2938220
  46.4841920  93.1755770  13.3790680  47.7421510  93.7327490  12.7474210
  53.9451010  97.6960330  23.2717250  53.1169640  97.7653420  22.7967380
  54.5401490  98.2814640  22.8033080  51.4666460  98.3045110  16.8006310
  50.8478880  97.9664660  16.1532610  51.4490910  97.6604870  17.5085500
  50.9093020  94.4829650  24.2172120  50.4964200  95.3083360  24.4712110
  50.1768970  93.8974690  24.0248480  43.0425810  97.2689550  19.0790790
  42.6382810  96.5566800  18.5836690  43.1288930  96.9242790  19.9678830
  41.7554430  94.0432760  22.8589830  42.3069020  94.1528100  22.0843080
  42.2697940  94.4170360  23.5745060  49.6431160  97.5431920  13.8079060
  50.0824440  96.7054350  13.6616880  50.3559580  98.1761320  13.8943200
  41.4297160  97.5652120  26.4695170  41.2904930  98.4374920  26.8382570
  40.5478520  97.2224930  26.3243110  53.2248300  88.7974730  12.1220100
  52.9120960  88.8901560  13.0219170  53.9860770  89.3755760  12.0717530
  39.7430440  96.1634530  16.5797440  39.6228040  96.8896620  15.9678710
  39.4331330  95.3937440  16.1025350  54.4349590  93.5346230  28.0994240
  53.8193860  94.0425900  27.5709700  54.1146010  92.6344560  28.0420180
  42.2094100  89.5069600  19.9621110  41.7662250  90.2879140  19.6305630
  42.7679090  89.8299490  20.6692050  46.4963910  92.3738120  25.5656430
  46.0343280  92.5821140  26.3776370  46.0942020  91.5597470  25.2627100
  51.4968420  93.5947070  26.6953090  50.6462010  93.2952820  27.0162160
  51.3370210  93.8389080  25.7836910  48.5918130  95.0948820  28.7951880
  48.9171540  94.2612570  28.4554110  49.3798460  95.6177340  28.9430210
  45.3252920  89.1280300  14.8426940  44.7007100  89.1240170  15.5680250
  45.2383040  88.2611260  14.4462910  44.2470000  90.0516930  21.8210710
  44.5442330  90.9579760  21.7402730  44.7955560  89.5635710  21.2070280
  42.0008320  94.6303170  17.6902360  41.7749240  94.4140340  18.5948980
  41.2200850  95.0631630  17.3448330  49.2306080  94.6366540  16.2893010
  48.6314970  95.3602340  16.1056630  49.7785690  94.5743320  15.5069460
  44.4407530  95.5288750  28.3562630  44.3451130  94.5883480  28.2063030
  45.2839510  95.7503820  27.9610700  47.8370950  93.2730080  18.3196290
  48.2300520  93.5902280  17.5064980  48.1987800  92.3941960  18.4340810
  39.5718070  91.9402420  26.5096410  39.1781460  92.7877630  26.7169190
  38.8836470  91.3028790  26.7005050  46.1463120  92.0237390  29.5793150
  45.4561440  91.8309590  30.2139240  46.8895420  92.3072030  30.1117450
  36.8735120  89.8630880  20.5426490  36.5848170  90.4333740  21.2551470
  37.6180880  89.3835330  20.9057720  37.0605350  93.8051000  11.7529210
  36.9780020  94.7481760  11.8944200  36.7088410  93.6625910  10.8741560
  48.4226090  95.8635830  22.4147070  47.6907210  96.3722640  22.7637170
  48.0250430  95.0465810  22.1135850  44.8603480  92.5390030  20.8199560
  44.8639540  92.0979980  19.9704100  45.7554600  92.8607360  20.9271380
  40.7105860  92.4216520  19.7793770  40.3705910  92.8991750  20.5360820
  39.9483180  91.9681640  19.4194870  44.9223630  93.5402110  13.8106320
  45.0436450  93.4988590  14.7592140  44.5372140  94.4026260  13.6553050
  48.8852000  91.3169510  21.8270010  48.9024740  91.7678160  22.6711860
  48.6367580  90.4175150  22.0403450  43.9345130  95.8503250  13.2089620
  43.3662030  95.4021500  12.5825530  44.6434130  96.2096030  12.6754770
  52.3122750  88.7301690  27.6656390  52.6368520  87.9991350  28.1914370
  52.3479260  88.4115330  26.7637380  45.1611450  96.5991810  22.5664970
  45.5281580  96.1250380  23.3126310  44.9716510  97.4733380  22.9073310
  38.0251940  91.3435500  18.6958440  37.7398860  90.9791170  19.5337060
  37.9630800  90.6115960  18.0821580  42.9510820  95.6400450  24.8849180
  42.6467890  96.5192430  25.1099540  43.9057280  95.7000240  24.9206620
  47.6990530  90.2364760  15.4171810  46.8855140  89.7377930  15.3417120
  47.5052480  91.0763010  15.0008160  50.4138920  94.6084410  13.7133970
  51.3018540  94.9201640  13.5385310  50.3844010  93.7356660  13.3214550
  39.0074550  96.4803190  26.0320540  38.6489490  97.1457040  26.6193880
  38.7129110  95.6486740  26.4033160  42.2087670  96.9387430  28.9160090
  41.9087810  97.0844610  28.0187910  42.9798910  96.3792720  28.8233480
  52.6853190  95.9196250  13.1813830  52.6016910  96.3510470  12.3310270
  53.4047380  96.3794600  13.6140650  37.5182600  96.4794450  12.6555140
  38.3877450  96.7619250  12.9391060  37.0272920  97.2930320  12.5403950
  44.6817410  97.8667660  16.7763420  45.1380190  98.6772910  17.0023610
  44.3305620  97.5490800  17.6081910  40.5829190  88.2105310  17.2485940
  40.4543820  88.2023210  18.1970860  39.7591210  88.5488400  16.8976950
  37.5823120  89.9696430  26.7092640  36.8681640  90.1693350  27.3145250
  38.0018160  89.1936000  27.0807440  49.0761900  92.4618740  24.4594090
  49.4442720  91.6413950  24.7873660  48.2160100  92.5220630  24.8749740
  52.4423930  91.4175680  15.2681650  51.8137090  91.5221350  14.5539880
  51.9475850  91.6372460  16.0575530  44.4107960  93.6961630  16.6839530
  43.7024110  94.1647970  17.1253140  44.6952440  93.0383640  17.3184720
  46.0363890  95.1158330  24.6832060  46.5349140  95.5904150  25.3483910
  46.1786840  94.1921850  24.8902090  48.4423390  90.4212290  18.1235320
  48.3191170  90.4398420  17.1744830  49.3907950  90.4691230  18.2433720
  42.6142980  92.0046710  14.0590240  43.4633510  92.4416860  13.9930430
  42.2474250  92.3166970  14.8862300  53.2430750  91.3326290  25.5260450
  52.7404350  92.0731690  25.8654260  54.0587410  91.7210290  25.2097240
  51.5352760  96.5759470  18.9721810  50.5942900  96.5909700  19.1469500
  51.8496830  95.7895430  19.4182110  41.5134400  98.2579070  12.5325770
  42.2797670  98.1460430  13.0951200  41.5909090  97.5617040  11.8802540
  40.2081160  95.6904140  13.2158660  40.2884750  94.7431650  13.3276060
  41.1000910  96.0211020  13.3219320  37.7351960  97.5119060  28.4514830
  38.2390980  96.9326340  29.0231060  36.9959380  97.7959290  28.9891200
  39.7675040  95.6548650  29.3464900  39.8080380  95.3562520  30.2550130
  40.6220540  96.0556260  29.1872420  43.5453430  98.2544200  14.5068410
  43.9669850  98.0884070  15.3499800  43.6704270  97.4444430  14.0123550
  41.7080850  94.2340750  27.3139390  41.1777310  93.7431700  26.6862730
  42.3768920  94.6624950  26.7797320  46.0581070  97.2781810  11.7545510
  46.5786730  96.5630830  11.3886660  46.7049470  97.9167680  12.0546020
  51.0781080  96.0406370  29.0819730  51.6601850  95.2858690  28.9940210
  51.2542850  96.5713810  28.3051210  42.1953150  91.2003120  27.3936680
  42.1010020  90.5823870  26.6687550  41.6150540  91.9269410  27.1666590
  44.9614590  89.7576360  24.4264070  44.5131890  89.7800620  23.5809620
  44.3279790  89.3595380  25.0234370  47.7038040  96.3846870  26.4314350
  47.8234250  95.7888010  27.1709190  48.5632040  96.4216560  26.0115650
  50.0425940  96.9384060  25.0076860  49.5161160  97.4626680  24.4042000
  50.3857280  97.5711450  25.6386590  42.4412330  94.3277430  11.4526570
  42.2401390  93.4644790  11.8139910  42.2704380  94.2410790  10.5148170
  44.4706810  92.9268220  27.6890170  45.0606500  92.6184070  28.3767990
  43.6527050  92.4547970  27.8450070  49.2900240  92.5434030  27.9223190
  48.6015760  91.8815570  27.8573180  50.0106260  92.0972300  28.3671650
  49.9200640  89.1385660  13.9813450  50.2002930  88.2953560  14.3372870
  49.1466370  89.3708770  14.4952200  41.2395130  91.4278050  11.4404450
  41.5421030  91.4345480  10.5323600  41.9789720  91.0775910  11.9372110
  44.4580060  90.3712670  12.4260650  44.1102060  89.6936660  11.8463100
  44.6592830  89.9102180  13.2404040  37.7985700  96.9000320  18.8225020
  37.1434540  96.6311960  18.1784720  38.6363650  96.7904800  18.3727000
  50.7476140  91.6941610  13.0443510  51.1661020  91.5072590  12.2040170
  50.4412200  90.8420660  13.3546440  54.2465870  96.6065750  16.7419310
  53.8709470  95.8393680  16.3100600  53.5168990  96.9888450  17.2294240
  38.8361630  97.2852890  23.3628360  39.2034670  97.1980290  24.2424380
  38.2672450  96.5219440  23.2635220  53.6365490  95.7537270  26.3758830
  53.4051580  95.5250020  25.4756780  53.8970040  96.6736820  26.3303720
  38.3877630  94.1961980  27.2686780  37.4933680  94.1628740  27.6080490
  38.9275180  94.3948770  28.0338030  52.0753560  90.9793700  29.1538530
  52.9523740  90.9877100  29.5372530  52.0874400  90.2424540  28.5430880
  37.0123780  94.1099250  14.7650350  36.1087860  94.3729450  14.5902010
  37.4964400  94.3810420  13.9850310  53.5216830  94.8323240  20.0426550
  54.0454310  94.3385890  19.4116720  54.1076250  94.9673600  20.7874120
  53.7006550  94.9163110  23.5646100  52.7509260  94.8826650  23.6791090
  53.8819560  95.8263220  23.3295870  39.5550990  93.1664790  12.6744730
  40.2642690  92.7448010  12.1892010  38.8390930  93.2340020  12.0428080
  39.2025150  89.2204120  11.7147380  39.9253280  89.7613060  12.0328600
  39.4749670  88.9467540  10.8388920  53.0116800  94.0896590  15.9818960
  53.5075920  93.8567460  16.7667840  52.8132870  93.2508430  15.5656600
  38.8917340  88.4710310  21.6170000  39.5393530  87.9207690  21.1765160
  39.3119180  88.7253460  22.4385810  54.4403960  92.7257540  18.5156640
  54.3303240  92.5713580  19.4538910  55.2011550  92.1978480  18.2732050
  52.7869680  88.6651670  24.9739640  53.4241900  89.2785810  25.3398830
  52.9344570  88.7012330  24.0288870  55.3294230  90.5565460  11.7562780
  56.2543540  90.4246640  11.5481070  55.3070020  90.6358280  12.7099230
  55.4032720  91.3276120  14.3819490  54.6084220  91.2621240  14.9112400
  55.6076000  92.2626760  14.3704840  38.6449340  88.6265980  24.3595320
  38.2964160  89.0829800  25.1253500  38.3137040  87.7323110  24.4417750
  46.1574160  89.8177860  27.8814740  46.0963050  90.4099690  28.6310150
  47.0974540  89.7103820  27.7365000  48.7948720  89.4747920  27.5207030
  49.4089130  89.7927210  26.8588110  49.3398280  88.9896510  28.1402890
  39.3169980  88.1542180  27.6346090  39.8652970  87.9730230  26.8712200
  39.3825290  87.3636290  28.1702400  49.5356760  88.0380060  23.8476320
  48.6616600  88.3715170  23.6449250  49.4267510  87.5653240  24.6728190
  50.4428740  90.2450930  25.2318040  50.1142100  89.4302690  24.8519770
  51.3911040  90.2020740  25.1083730  47.2831580  88.9549900  22.7869230
  46.5003370  89.4295400  23.0665990  46.9894510  88.0504730  22.6782410
  51.8352650  89.6573000  20.8318320  52.2760740  89.6018100  19.9839920
  51.5660240  90.5731010  20.9028500  53.6991220  89.2888240  18.8427140
  53.6379620  88.3449460  18.6958160  54.4783250  89.3968330  19.3880600
  38.6271990  89.2597380  15.3082950  39.3851350  89.3726260  14.7346980
  38.1649160  90.0966580  15.2626380  45.1685800  91.3736650  18.2985260
  44.3560310  90.9993540  17.9581140  45.6727440  90.6181730  18.6006450
  49.6710780  88.0379100  19.5368330  50.2740150  88.6099310  20.0116850
  48.9303770  88.6018540  19.3142230  52.8145380  88.4400660  14.8108610
  53.0096010  89.3384110  15.0776040  52.0275250  88.2087740  15.3041560
  40.9997140  89.7861430  13.8484920  41.5289900  88.9991230  13.7192870
  41.6325460  90.4652620  14.0820450  43.1934980  89.5236570  16.9030310
  42.5637720  88.8223880  17.0700440  42.6540120  90.2840700  16.6863470
  43.3190540  88.8020550  29.3382800  43.0374810  89.3054150  28.5743620
  43.7010240  88.0042300  28.9724930  49.9206000  88.2174130  29.9163270
  49.8071450  88.5368740  30.8114790  50.7375740  88.6186640  29.6200550
  46.9582190  98.0145620   2.1607280  46.1824290  97.5346060   2.4505850
  47.6095120  97.3351270   1.9863440  40.9748020  98.3265430   3.0383040
  40.1432900  98.0714140   3.4379550  41.5829000  98.3976200   3.7740960
  37.3472980  95.8872970   2.7065130  37.9189090  95.1195170   2.7068770
  37.3474520  96.1861730   1.7971740  38.5897850  91.2957330   4.4934060
  38.4100690  90.3983080   4.7736820  38.1877930  91.8429200   5.1681010
  47.4296350  93.4973190   2.3946370  47.8061170  92.6245070   2.2820040
  47.3315860  93.8331890   1.5036810  39.2084520  93.7917830   3.1016400
  39.8894630  94.0556200   3.7203800  38.8932570  92.9518700   3.4354410
  43.4009090  94.8385190   2.1888990  43.9087310  95.3366160   2.8294010
  43.9322330  94.0620390   2.0128350  55.5020020  93.0090380   5.8918340
  54.7972190  93.3972090   5.3733450  55.7677940  93.7040670   6.4939270
  41.6845190  89.4783750   6.4552410  41.6863630  89.9956140   5.6498310
  40.8549500  89.0013930   6.4322340  51.4481950  92.9324010   2.1002250
  50.7437520  93.2208900   2.6805360  51.8094110  93.7424120   1.7401810
  41.3660520  91.1893710   4.4622860  41.7077330  92.0335760   4.1676730
  40.4276330  91.3377450   4.5788200  54.5168870  92.3778800   2.4911460
  53.5693780  92.4117780   2.6226890  54.8418860  93.1917750   2.8760820
  53.9451010  97.6960330   4.4973760  53.1169640  97.7653420   4.0223890
  54.5401490  98.2814640   4.0289590  50.9093020  94.4829650   5.4428630
  50.4964200  95.3083360   5.6968620  50.1768970  93.8974690   5.2504990
  41.7554430  94.0432760   4.0846340  42.3069020  94.1528100   3.3099590
  42.2697940  94.4170360   4.8001570  41.4297160  97.5652120   7.6951680
  41.2904930  98.4374920   8.0639080  40.5478520  97.2224930   7.5499620
  54.4349590  93.5346230   9.3250750  53.8193860  94.0425900   8.7966210
  54.1146010  92.6344560   9.2676690  46.4963910  92.3738120   6.7912940
  46.0343280  92.5821140   7.6032880  46.0942020  91.5597470   6.4883610
  51.4968420  93.5947070   7.9209600  50.6462010  93.2952820   8.2418670
  51.3370210  93.8389080   7.0093420  48.5918130  95.0948820  10.0208390
  48.9171540  94.2612570   9.6810620  49.3798460  95.6177340  10.1686720
  44.2470000  90.0516930   3.0467220  44.5442330  90.9579760   2.9659240
  44.7955560  89.5635710   2.4326790  44.4407530  95.5288750   9.5819140
  44.3451130  94.5883480   9.4319540  45.2839510  95.7503820   9.1867210
  39.5718070  91.9402420   7.7352920  39.1781460  92.7877630   7.9425700
  38.8836470  91.3028790   7.9261560  46.1463120  92.0237390  10.8049660
  45.4561440  91.8309590  11.4395750  46.8895420  92.3072030  11.3373960
  36.8735120  89.8630880   1.7683000  36.5848170  90.4333740   2.4807980
  37.6180880  89.3835330   2.1314230  48.4226090  95.8635830   3.6403580
  47.6907210  96.3722640   3.9893680  48.0250430  95.0465810   3.3392360
  48.8852000  91.3169510   3.0526520  48.9024740  91.7678160   3.8968370
  48.6367580  90.4175150   3.2659960  52.3122750  88.7301690   8.8912900
  52.6368520  87.9991350   9.4170880  52.3479260  88.4115330   7.9893890
  45.1611450  96.5991810   3.7921480  45.5281580  96.1250380   4.5382820
  44.9716510  97.4733380   4.1329820  42.9510820  95.6400450   6.1105690
  42.6467890  96.5192430   6.3356050  43.9057280  95.7000240   6.1463130
  39.0074550  96.4803190   7.2577050  38.6489490  97.1457040   7.8450390
  38.7129110  95.6486740   7.6289670  42.2087670  96.9387430  10.1416600
  41.9087810  97.0844610   9.2444420  42.9798910  96.3792720  10.0489990
  37.5823120  89.9696430   7.9349150  36.8681640  90.1693350   8.5401760
  38.0018160  89.1936000   8.3063950  49.0761900  92.4618740   5.6850600
  49.4442720  91.6413950   6.0130170  48.2160100  92.5220630   6.1006250
  46.0363890  95.1158330   5.9088570  46.5349140  95.5904150   6.5740420
  46.1786840  94.1921850   6.1158600  53.2430750  91.3326290   6.7516960
  52.7404350  92.0731690   7.0910770  54.0587410  91.7210290   6.4353750
  37.7351960  97.5119060   9.6771340  38.2390980  96.9326340  10.2487570
  36.9959380  97.7959290  10.2147710  39.7675040  95.6548650  10.5721410
  39.8080380  95.3562520  11.4806640  40.6220540  96.0556260  10.4128930
  41.7080850  94.2340750   8.5395900  41.1777310  93.7431700   7.9119240
  42.3768920  94.6624950   8.0053830  51.0781080  96.0406370  10.3076240
  51.6601850  95.2858690  10.2196720  51.2542850  96.5713810   9.5307720
  42.1953150  91.2003120   8.6193190  42.1010020  90.5823870   7.8944060
  41.6150540  91.9269410   8.3923100  44.9614590  89.7576360   5.6520580
  44.5131890  89.7800620   4.8066130  44.3279790  89.3595380   6.2490880
  47.7038040  96.3846870   7.6570860  47.8234250  95.7888010   8.3965700
  48.5632040  96.4216560   7.2372160  50.0425940  96.9384060   6.2333370
  49.5161160  97.4626680   5.6298510  50.3857280  97.5711450   6.8643100
  44.4706810  92.9268220   8.9146680  45.0606500  92.6184070   9.6024500
  43.6527050  92.4547970   9.0706580  49.2900240  92.5434030   9.1479700
  48.6015760  91.8815570   9.0829690  50.0106260  92.0972300   9.5928160
  38.8361630  97.2852890   4.5884870  39.2034670  97.1980290   5.4680890
  38.2672450  96.5219440   4.4891730  53.6365490  95.7537270   7.6015340
  53.4051580  95.5250020   6.7013290  53.8970040  96.6736820   7.5560230
  38.3877630  94.1961980   8.4943290  37.4933680  94.1628740   8.8337000
  38.9275180  94.3948770   9.2594540  52.0753560  90.9793700  10.3795040
  52.9523740  90.9877100  10.7629040  52.0874400  90.2424540   9.7687390
  53.7006550  94.9163110   4.7902610  52.7509260  94.8826650   4.9047600
  53.8819560  95.8263220   4.5552380  38.8917340  88.4710310   2.8426510
  39.5393530  87.9207690   2.4021670  39.3119180  88.7253460   3.6642320
  52.7869680  88.6651670   6.1996150  53.4241900  89.2785810   6.5655340
  52.9344570  88.7012330   5.2545380  38.6449340  88.6265980   5.5851830
  38.2964160  89.0829800   6.3510010  38.3137040  87.7323110   5.6674260
  46.1574160  89.8177860   9.1071250  46.0963050  90.4099690   9.8566660
  47.0974540  89.7103820   8.9621510  48.7948720  89.4747920   8.7463540
  49.4089130  89.7927210   8.0844620  49.3398280  88.9896510   9.3659400
  39.3169980  88.1542180   8.8602600  39.8652970  87.9730230   8.0968710
  39.3825290  87.3636290   9.3958910  49.5356760  88.0380060   5.0732830
  48.6616600  88.3715170   4.8705760  49.4267510  87.5653240   5.8984700
  50.4428740  90.2450930   6.4574550  50.1142100  89.4302690   6.0776280
  51.3911040  90.2020740   6.3340240  47.2831580  88.9549900   4.0125740
  46.5003370  89.4295400   4.2922500  46.9894510  88.0504730   3.9038920
  43.3190540  88.8020550  10.5639310  43.0374810  89.3054150   9.8000130
  43.7010240  88.0042300  10.1981440  49.9206000  88.2174130  11.1419780
  49.8071450  88.5368740  12.0371300  50.7375740  88.6186640  10.8457060
  48.8264150  77.4623110  56.6028480  48.7458200  76.5477720  56.3320190
  48.4128570  77.9590180  55.8968190  50.9789620  83.6462320  57.2636880
  50.5171150  82.8749560  57.5924050  51.7915170  83.6728390  57.7689330
  39.3839970  74.5123830  53.1455900  38.4956670  74.8539800  53.0435780
  39.6681160  74.3124150  52.2536730  47.2052930  85.9320330  56.8840870
  46.5864370  86.3877830  56.3135310  48.0604710  86.0871790  56.4830570
  41.5601360  73.0955330  54.1794280  41.6668110  73.9959060  54.4863040
  40.6493720  73.0473300  53.8888930  51.2120470  72.2180140  55.6505180
  52.0330090  71.7276710  55.6930660  51.2454550  72.8077800  56.4037020
  48.0716280  80.8159570  54.2772780  47.4533550  81.2809020  53.7135500
  48.5839530  81.5087050  54.6942290  37.4399480  81.5016100  51.6512410
  37.0627460  81.9903200  50.9197310  37.6972550  82.1741380  52.2818940
  45.0488410  69.9032490  57.1097920  45.3563390  69.3479380  56.3933420
  44.1189110  70.0376950  56.9270910  51.8948890  82.3416000  54.4895550
  51.7845220  81.3990330  54.6144970  51.8917140  82.7031640  55.3758310
  47.4369170  77.9681320  53.8458040  46.5098450  77.9018700  54.0746510
  47.5893990  78.9061450  53.7313280  47.4238250  74.2398320  50.8425200
  46.4841920  74.4012280  50.9277660  47.7421510  74.9584000  50.2961190
  51.4666460  79.5301620  54.3493290  50.8478880  79.1921170  53.7019590
  51.4490910  78.8861380  55.0572480  43.0425810  78.4946060  56.6277770
  42.6382810  77.7823310  56.1323670  43.1288930  78.1499300  57.5165810
  49.6431160  78.7688430  51.3566040  50.0824440  77.9310860  51.2103860
  50.3559580  79.4017830  51.4430180  47.7526540  83.7084500  55.3247280
  48.1922450  84.4508830  54.9102670  47.6913430  83.9511070  56.2486240
  53.2248300  70.0231240  49.6707080  52.9120960  70.1158070  50.5706150
  53.9860770  70.6012270  49.6204510  39.7430440  77.3891040  54.1284420
  39.6228040  78.1153130  53.5165690  39.4331330  76.6193950  53.6512330
  38.6263440  82.2606370  56.3459240  38.2191520  82.4020960  55.4912840
  39.5176450  81.9766530  56.1430450  50.4196720  86.6953620  52.6810290
  50.2597860  86.4056560  53.5792120  50.2543430  85.9193750  52.1455520
  42.8985100  86.4752150  54.4581910  42.7227580  85.5587690  54.2449710
  42.0440840  86.8339440  54.6979710  50.1222850  84.2041180  51.2408290
  49.4288010  84.2018470  50.5810570  50.8645710  83.7800500  50.8102460
  49.6872780  85.8303890  55.3156780  50.1429730  85.0493270  55.6295400
  50.0265300  86.5410710  55.8597960  42.2094100  70.7326110  57.5108090
  41.7662250  71.5135650  57.1792610  42.7679090  71.0556000  58.2179030
  45.3252920  70.3536810  52.3913920  44.7007100  70.3496680  53.1167230
  45.2383040  69.4867770  51.9949890  42.0008320  75.8559680  55.2389340
  41.7749240  75.6396850  56.1435960  41.2200850  76.2888140  54.8935310
  49.2306080  75.8623050  53.8379990  48.6314970  76.5858850  53.6543610
  49.7785690  75.7999830  53.0556440  47.8370950  74.4986590  55.8683270
  48.2300520  74.8158790  55.0551960  48.1987800  73.6198470  55.9827790
  37.0605350  75.0307510  49.3016190  36.9780020  75.9738270  49.4431180
  36.7088410  74.8882420  48.4228540  44.8603480  73.7646540  58.3686540
  44.8639540  73.3236490  57.5191080  45.7554600  74.0863870  58.4758360
  40.7105860  73.6473030  57.3280750  40.3705910  74.1248260  58.0847800
  39.9483180  73.1938150  56.9681850  44.9223630  74.7658620  51.3593300
  45.0436450  74.7245100  52.3079120  44.5372140  75.6282770  51.2040030
  43.9345130  77.0759760  50.7576600  43.3662030  76.6278010  50.1312510
  44.6434130  77.4352540  50.2241750  38.0251940  72.5692010  56.2445420
  37.7398860  72.2047680  57.0824040  37.9630800  71.8372470  55.6308560
  41.4792610  81.0717950  53.0303010  40.7054870  80.5315570  52.8701730
  42.2087240  80.5524560  52.6920770  47.6990530  71.4621270  52.9658790
  46.8855140  70.9634440  52.8904100  47.5052480  72.3019520  52.5495140
  50.4138920  75.8340920  51.2620950  51.3018540  76.1458150  51.0872290
  50.3844010  74.9613170  50.8701530  41.5230010  80.7398330  56.6681820
  42.0408680  79.9366590  56.6138710  41.0714030  80.6777470  57.5098650
  46.4099510  82.0064610  51.9409120  46.7515210  82.7506840  51.4452440
  45.5812220  82.3195730  52.3033950  52.6853190  77.1452760  50.7300810
  52.6016910  77.5766980  49.8797250  53.4047380  77.6051110  51.1627630
  53.7140440  83.9995020  53.4582940  53.0716600  83.3450640  53.7326660
  53.3271100  84.4050110  52.6823610  49.2926920  81.3280450  57.3054630
  49.6450740  80.7308580  56.6456000  48.4089250  81.0024680  57.4762880
  45.3790200  82.0878140  54.7125040  46.0661330  82.6347350  55.0932630
  44.5922620  82.6318870  54.7474650  37.5182600  77.7050960  50.2042120
  38.3877450  77.9875760  50.4878040  37.0272920  78.5186830  50.0890930
  44.6817410  79.0924170  54.3250400  45.1380190  79.9029420  54.5510590
  44.3305620  78.7747310  55.1568890  40.5829190  69.4361820  54.7972920
  40.4543820  69.4279720  55.7457840  39.7591210  69.7744910  54.4463930
  52.1037820  82.8911480  49.9959290  51.8775400  82.1741920  50.5883930
  51.7134020  82.6423920  49.1581040  37.8853850  86.9178340  50.7703750
  38.2451490  87.5167680  50.1161020  37.7446190  87.4638230  51.5438780
  51.6854070  80.8083420  51.6573450  51.3975770  81.2696110  52.4451330
  52.4806240  80.3481190  51.9257670  43.9022470  84.3009540  51.5877420
  43.8932570  85.0339230  50.9721930  42.9820830  84.0541120  51.6804380
  39.5029110  79.5224430  52.3324180  38.8957060  80.2623330  52.3419480
  39.9778460  79.6123790  51.5062380  52.4423930  72.6432190  52.8168630
  51.8137090  72.7477860  52.1026860  51.9475850  72.8628970  53.6062510
  46.8882070  84.3637780  50.2502610  46.9894050  84.1601770  49.3204590
  45.9883810  84.1096060  50.4550390  44.4107960  74.9218140  54.2326510
  43.7024110  75.3904480  54.6740120  44.6952440  74.2640150  54.8671700
  48.4423390  71.6468800  55.6722300  48.3191170  71.6654930  54.7231810
  49.3907950  71.6947740  55.7920700  45.5300180  86.8824100  54.9450280
  45.7841680  86.8445490  54.0229650  44.5812660  86.7557430  54.9378530
  42.6142980  73.2303220  51.6077220  43.4633510  73.6673370  51.5417410
  42.2474250  73.5423480  52.4349280  51.5352760  77.8015980  56.5208790
  50.5942900  77.8166210  56.6956480  51.8496830  77.0151940  56.9669090
  41.5134400  79.4835580  50.0812750  42.2797670  79.3716940  50.6438180
  41.5909090  78.7873550  49.4289520  40.2081160  76.9160650  50.7645640
  40.2884750  75.9688160  50.8763040  41.1000910  77.2467530  50.8706300
  41.0095870  87.0656040  57.8680180  41.7458350  86.5171500  58.1388750
  41.3936790  87.9312050  57.7286170  37.8941350  83.1329610  53.7421690
  36.9681130  83.3750750  53.7327100  38.3597780  83.9603870  53.6206440
  44.1198180  86.2386350  49.6905750  44.9126790  86.5275180  49.2387540
  43.6002530  85.8078520  49.0118230  53.1728350  85.4656480  51.1142490
  52.8869860  85.0521620  50.2996670  52.9747900  86.3944190  50.9943010
  44.6375580  81.4589760  49.5548100  44.5326220  80.8442110  50.2809480
  44.4699800  80.9355650  48.7711110  47.8778310  80.5209790  50.1590090
  47.3288410  80.9679090  50.8032830  48.4997570  80.0159040  50.6827760
  43.5453430  79.4800710  52.0555390  43.9669850  79.3140580  52.8986780
  43.6704270  78.6700940  51.5610530  46.0581070  78.5038320  49.3032490
  46.5786730  77.7887340  48.9373640  46.7049470  79.1424190  49.6033000
  42.4412330  75.5533940  49.0013550  42.2401390  74.6901300  49.3626890
  42.2704380  75.4667300  48.0635150  49.9200640  70.3642170  51.5300430
  50.2002930  69.5210070  51.8859850  49.1466370  70.5965280  52.0439180
  41.2395130  72.6534560  48.9891430  41.5421030  72.6601990  48.0810580
  41.9789720  72.3032420  49.4859090  44.4580060  71.5969180  49.9747630
  44.1102060  70.9193170  49.3950080  44.6592830  71.1358690  50.7891020
  46.6229100  86.5849930  51.5934230  47.5179890  86.9234900  51.6152990
  46.6546730  85.8629340  50.9658510  40.2625260  81.9576980  49.8221230
  40.7000130  82.5006650  50.4778810  40.7472990  81.1323930  49.8317570
  37.4771060  84.7466010  57.2741490  37.8074070  83.8787070  57.0420130
  37.9062060  84.9524530  58.1046450  42.0732980  83.0775020  54.9343460
  41.7728520  82.9539990  55.8347370  41.9670470  82.2183610  54.5259190
  54.8424900  82.8571420  49.6370140  54.0117860  82.9248070  50.1077370
  55.0196730  83.7475540  49.3337000  54.2981360  79.6018900  52.1404340
  55.0600270  80.1715550  52.2464030  54.3135730  79.0346100  52.9112650
  37.7985700  78.1256830  56.3712000  37.1434540  77.8568470  55.7271700
  38.6363650  78.0161310  55.9213980  55.3041330  80.4569000  56.9846270
  55.6750160  79.6736320  56.5782240  55.9443260  81.1458100  56.8063570
  54.3500530  79.8953270  49.2976860  54.6249370  80.8032150  49.1696080
  54.1611270  79.8315800  50.2338850  50.7476140  72.9198120  50.5930490
  51.1661020  72.7329100  49.7527150  50.4412200  72.0677170  50.9033420
  54.2465870  77.8322260  54.2906290  53.8709470  77.0650190  53.8587580
  53.5168990  78.2144960  54.7781220  37.0123780  75.3355760  52.3137330
  36.1087860  75.5985960  52.1388990  37.4964400  75.6066930  51.5337290
  53.5216830  76.0579750  57.5913530  54.0454310  75.5642400  56.9603700
  54.1076250  76.1930110  58.3361100  39.5550990  74.3921300  50.2231710
  40.2642690  73.9704520  49.7378990  38.8390930  74.4596530  49.5915060
  39.2025150  70.4460630  49.2634360  39.9253280  70.9869570  49.5815580
  39.4749670  70.1724050  48.3875900  53.0116800  75.3153100  53.5305940
  53.5075920  75.0823970  54.3154820  52.8132870  74.4764940  53.1143580
  54.4403960  73.9514050  56.0643620  54.3303240  73.7970090  57.0025890
  55.2011550  73.4234990  55.8219030  55.3294230  71.7821970  49.3049760
  56.2543540  71.6503150  49.0968050  55.3070020  71.8614790  50.2586210
  55.4032720  72.5532630  51.9306470  54.6084220  72.4877750  52.4599380
  55.6076000  73.4883270  51.9191820  52.3451140  86.5924180  55.9244860
  52.9410210  86.2708750  55.2479280  52.6029290  86.1196000  56.7158130
  51.8352650  70.8829510  58.3805300  52.2760740  70.8274610  57.5326900
  51.5660240  71.7987520  58.4515480  53.6991220  70.5144750  56.3914120
  53.6379620  69.5705970  56.2445140  54.4783250  70.6224840  56.9367580
  38.0043970  86.6537110  55.3538070  37.8366010  86.0207790  56.0519960
  37.1378480  86.8596510  55.0032260  38.6271990  70.4853890  52.8569930
  39.3851350  70.5982770  52.2833960  38.1649160  71.3223090  52.8113360
  45.1685800  72.5993160  55.8472240  44.3560310  72.2250050  55.5068120
  45.6727440  71.8438240  56.1493430  49.6710780  69.2635610  57.0855310
  50.2740150  69.8355820  57.5603830  48.9303770  69.8275050  56.8629210
  52.8145380  69.6657170  52.3595590  53.0096010  70.5640620  52.6263020
  52.0275250  69.4344250  52.8528540  39.6106670  85.3470340  52.7988210
  39.0854290  85.7278370  52.0950170  39.5351250  85.9721110  53.5197920
  40.9997140  71.0117940  51.3971900  41.5289900  70.2247740  51.2679850
  41.6325460  71.6909130  51.6307430  43.1934980  70.7493080  54.4517290
  42.5637720  70.0480390  54.6187420  42.6540120  71.5097210  54.2350450
  54.3671990  86.9057880  54.1202150  54.5424180  86.2195620  53.4763070
  53.6693560  87.4304930  53.7278820  42.2099640  87.2952720  51.6737460
  42.9418460  87.0112000  51.1261350  42.4693310  87.0566000  52.5636840
  41.3714430  83.4117450  51.6783790  40.7423310  83.8802550  52.2269620
  41.4862260  82.5666670  52.1129980  48.8264150  77.4623110  37.8284990
  48.7458200  76.5477720  37.5576700  48.4128570  77.9590180  37.1224700
  46.9582190  79.2402130  39.7094260  46.1824290  78.7602570  39.9992830
  47.6095120  78.5607780  39.5350420  40.9748020  79.5521940  40.5870020
  40.1432900  79.2970650  40.9866530  41.5829000  79.6232710  41.3227940
  50.9789620  83.6462320  38.4893390  50.5171150  82.8749560  38.8180560
  51.7915170  83.6728390  38.9945840  40.9549280  83.5862030  40.7828040
  41.2577320  82.6959770  40.6038260  41.6992870  84.1432250  40.5550290
  39.3839970  74.5123830  34.3712410  38.4956670  74.8539800  34.2692290
  39.6681160  74.3124150  33.4793240  37.3472980  77.1129480  40.2552110
  37.9189090  76.3451680  40.2555750  37.3474520  77.4118240  39.3458720
  47.2052930  85.9320330  38.1097380  46.5864370  86.3877830  37.5391820
  48.0604710  86.0871790  37.7087080  46.3991180  81.9159320  39.7164420
  46.3299460  80.9749260  39.5553550  47.1611040  82.0060730  40.2886990
  38.5897850  72.5213840  42.0421040  38.4100690  71.6239590  42.3223800
  38.1877930  73.0685710  42.7167990  47.4296350  74.7229700  39.9433350
  47.8061170  73.8501580  39.8307020  47.3315860  75.0588400  39.0523790
  41.5601360  73.0955330  35.4050790  41.6668110  73.9959060  35.7119550
  40.6493720  73.0473300  35.1145440  51.2120470  72.2180140  36.8761690
  52.0330090  71.7276710  36.9187170  51.2454550  72.8077800  37.6293530
  39.2084520  75.0174340  40.6503380  39.8894630  75.2812710  41.2690780
  38.8932570  74.1775210  40.9841390  43.4009090  76.0641700  39.7375970
  43.9087310  76.5622670  40.3780990  43.9322330  75.2876900  39.5615330
  55.5020020  74.2346890  43.4405320  54.7972190  74.6228600  42.9220430
  55.7677940  74.9297180  44.0426250  41.6845190  70.7040260  44.0039390
  41.6863630  71.2212650  43.1985290  40.8549500  70.2270440  43.9809320
  48.0716280  80.8159570  35.5029290  47.4533550  81.2809020  34.9392010
  48.5839530  81.5087050  35.9198800  42.9348040  80.3435440  42.1812890
  42.6017420  80.9704360  42.8233960  43.1114720  80.8697320  41.4014560
  51.4481950  74.1580520  39.6489230  50.7437520  74.4465410  40.2292340
  51.8094110  74.9680630  39.2888790  41.3660520  72.4150220  42.0109840
  41.7077330  73.2592270  41.7163710  40.4276330  72.5633960  42.1275180
  42.1467140  82.3116240  43.9962070  42.7641140  82.9867320  43.7146520
  41.2860260  82.7204220  43.9049570  37.4399480  81.5016100  32.8768920
  37.0627460  81.9903200  32.1453820  37.6972550  82.1741380  33.5075450
  53.0644730  83.7755650  41.9116710  52.3808250  84.4454760  41.9033380
  53.6039020  83.9736300  41.1461570  54.5168870  73.6035310  40.0398440
  53.5693780  73.6374290  40.1713870  54.8418860  74.4174260  40.4247800
  45.0488410  69.9032490  38.3354430  45.3563390  69.3479380  37.6189930
  44.1189110  70.0376950  38.1527420  50.6003470  85.6199780  40.6261890
  50.6130630  85.2162070  39.7584150  50.0478690  86.3947070  40.5223320
  51.8948890  82.3416000  35.7152060  51.7845220  81.3990330  35.8401480
  51.8917140  82.7031640  36.6014820  49.9988910  80.5229620  41.9544500
  50.4157700  80.3089730  41.1197960  50.7228730  80.7802410  42.5253120
  47.4369170  77.9681320  35.0714550  46.5098450  77.9018700  35.3003020
  47.5893990  78.9061450  34.9569790  47.4238250  74.2398320  32.0681710
  46.4841920  74.4012280  32.1534170  47.7421510  74.9584000  31.5217700
  53.9451010  78.9216840  42.0460740  53.1169640  78.9909930  41.5710870
  54.5401490  79.5071150  41.5776570  51.4666460  79.5301620  35.5749800
  50.8478880  79.1921170  34.9276100  51.4490910  78.8861380  36.2828990
  50.9093020  75.7086160  42.9915610  50.4964200  76.5339870  43.2455600
  50.1768970  75.1231200  42.7991970  43.0425810  78.4946060  37.8534280
  42.6382810  77.7823310  37.3580180  43.1288930  78.1499300  38.7422320
  43.5107510  82.1813620  40.0173490  43.2135800  81.5759090  39.3381270
  44.4607330  82.2190930  39.9062850  41.7554430  75.2689270  41.6333320
  42.3069020  75.3784610  40.8586570  42.2697940  75.6426870  42.3488550
  51.5993120  85.7545490  43.6796590  51.1223680  86.5617680  43.4869200
  50.9154910  85.1023820  43.8322800  42.6025940  81.9195310  46.6681290
  41.7054470  82.1435280  46.9154690  42.6278810  82.0430250  45.7192690
  49.6431160  78.7688430  32.5822550  50.0824440  77.9310860  32.4360370
  50.3559580  79.4017830  32.6686690  41.4297160  78.7908630  45.2438660
  41.2904930  79.6631430  45.6126060  40.5478520  78.4481440  45.0986600
  47.7526540  83.7084500  36.5503790  48.1922450  84.4508830  36.1359180
  47.6913430  83.9511070  37.4742750  43.2277510  84.7330330  47.4523810
  43.1992940  85.1373280  46.5852240  43.0642480  83.8040690  47.2895410
  39.7430440  77.3891040  35.3540930  39.6228040  78.1153130  34.7422200
  39.4331330  76.6193950  34.8768840  55.1792330  85.5157430  48.7487980
  55.6552050  85.9940320  49.4277060  55.7999490  85.4474920  48.0233480
  37.3815810  80.5606180  41.1609570  37.4596230  80.6954950  40.2165290
  37.9957490  79.8522070  41.3537690  38.6263440  82.2606370  37.5715750
  38.2191520  82.4020960  36.7169350  39.5176450  81.9766530  37.3686960
  54.5825580  82.7070280  45.9087990  54.7088640  82.4682160  44.9905170
  54.6246960  81.8754820  46.3810070  48.4442320  86.4098280  44.4782800
  48.9586990  86.3206290  45.2805230  47.6011400  86.7557980  44.7710710
  50.4196720  86.6953620  33.9066800  50.2597860  86.4056560  34.8048630
  50.2543430  85.9193750  33.3712030  42.8985100  86.4752150  35.6838420
  42.7227580  85.5587690  35.4706220  42.0440840  86.8339440  35.9236220
  50.1222850  84.2041180  32.4664800  49.4288010  84.2018470  31.8067080
  50.8645710  83.7800500  32.0358970  49.6872780  85.8303890  36.5413290
  50.1429730  85.0493270  36.8551910  50.0265300  86.5410710  37.0854470
  54.4349590  74.7602740  46.8737730  53.8193860  75.2682410  46.3453190
  54.1146010  73.8601070  46.8163670  37.4375330  81.6020350  43.7004030
  37.6006370  81.1325710  42.8823400  37.9027780  81.0943910  44.3652870
  42.2094100  70.7326110  38.7364600  41.7662250  71.5135650  38.4049120
  42.7679090  71.0556000  39.4435540  46.4963910  73.5994630  44.3399920
  46.0343280  73.8077650  45.1519860  46.0942020  72.7853980  44.0370590
  51.4968420  74.8203580  45.4696580  50.6462010  74.5209330  45.7905650
  51.3370210  75.0645590  44.5580400  48.5918130  76.3205330  47.5695370
  48.9171540  75.4869080  47.2297600  49.3798460  76.8433850  47.7173700
  44.2470000  71.2773440  40.5954200  44.5442330  72.1836270  40.5146220
  44.7955560  70.7892220  39.9813770  42.0008320  75.8559680  36.4645850
  41.7749240  75.6396850  37.3692470  41.2200850  76.2888140  36.1191820
  49.2306080  75.8623050  35.0636500  48.6314970  76.5858850  34.8800120
  49.7785690  75.7999830  34.2812950  44.4407530  76.7545260  47.1306120
  44.3451130  75.8139990  46.9806520  45.2839510  76.9760330  46.7354190
  47.8370950  74.4986590  37.0939780  48.2300520  74.8158790  36.2808470
  48.1987800  73.6198470  37.2084300  39.5718070  73.1658930  45.2839900
  39.1781460  74.0134140  45.4912680  38.8836470  72.5285300  45.4748540
  46.1463120  73.2493900  48.3536640  45.4561440  73.0566100  48.9882730
  46.8895420  73.5328540  48.8860940  36.8735120  71.0887390  39.3169980
  36.5848170  71.6590250  40.0294960  37.6180880  70.6091840  39.6801210
  37.0605350  75.0307510  30.5272700  36.9780020  75.9738270  30.6687690
  36.7088410  74.8882420  29.6485050  48.4226090  77.0892340  41.1890560
  47.6907210  77.5979150  41.5380660  48.0250430  76.2722320  40.8879340
  44.8603480  73.7646540  39.5943050  44.8639540  73.3236490  38.7447590
  45.7554600  74.0863870  39.7014870  40.7105860  73.6473030  38.5537260
  40.3705910  74.1248260  39.3104310  39.9483180  73.1938150  38.1938360
  44.9223630  74.7658620  32.5849810  45.0436450  74.7245100  33.5335630
  44.5372140  75.6282770  32.4296540  48.8852000  72.5426020  40.6013500
  48.9024740  72.9934670  41.4455350  48.6367580  71.6431660  40.8146940
  43.9345130  77.0759760  31.9833110  43.3662030  76.6278010  31.3569020
  44.6434130  77.4352540  31.4498260  52.3122750  69.9558200  46.4399880
  52.6368520  69.2247860  46.9657860  52.3479260  69.6371840  45.5380870
  39.0114310  80.9771780  45.8599840  38.6269100  80.3365450  46.4582800
  39.3226500  81.6807900  46.4294570  45.1611450  77.8248320  41.3408460
  45.5281580  77.3506890  42.0869800  44.9716510  78.6989890  41.6816800
  38.0251940  72.5692010  37.4701930  37.7398860  72.2047680  38.3080550
  37.9630800  71.8372470  36.8565070  42.9510820  76.8656960  43.6592670
  42.6467890  77.7448940  43.8843030  43.9057280  76.9256750  43.6950110
  41.4792610  81.0717950  34.2559520  40.7054870  80.5315570  34.0958240
  42.2087240  80.5524560  33.9177280  52.2380590  80.0683310  40.0485910
  52.9579710  80.5638600  39.6582020  52.0362410  79.3901200  39.4039780
  47.6990530  71.4621270  34.1915300  46.8855140  70.9634440  34.1160610
  47.5052480  72.3019520  33.7751650  47.6199390  80.1392370  45.9354910
  47.5536700  79.2188040  45.6812500  46.9904530  80.2367810  46.6499550
  41.5230010  80.7398330  37.8938330  42.0408680  79.9366590  37.8395220
  41.0714030  80.6777470  38.7355160  46.4099510  82.0064610  33.1665630
  46.7515210  82.7506840  32.6708950  45.5812220  82.3195730  33.5290460
  39.0074550  77.7059700  44.8064030  38.6489490  78.3713550  45.3937370
  38.7129110  76.8743250  45.1776650  42.2087670  78.1643940  47.6903580
  41.9087810  78.3101120  46.7931400  42.9798910  77.6049230  47.5976970
  47.5516120  82.9612940  45.6858710  47.5660660  82.0293900  45.4677620
  46.8441220  83.0472700  46.3248480  53.7627330  79.6020280  45.0327290
  53.0375520  80.1949060  44.8356680  54.2902790  79.5943820  44.2340660
  53.7140440  83.9995020  34.6839450  53.0716600  83.3450640  34.9583170
  53.3271100  84.4050110  33.9080120  49.2926920  81.3280450  38.5311140
  49.6450740  80.7308580  37.8712510  48.4089250  81.0024680  38.7019390
  45.3790200  82.0878140  35.9381550  46.0661330  82.6347350  36.3189140
  44.5922620  82.6318870  35.9731160  37.5182600  77.7050960  31.4298630
  38.3877450  77.9875760  31.7134550  37.0272920  78.5186830  31.3147440
  44.6817410  79.0924170  35.5506910  45.1380190  79.9029420  35.7767100
  44.3305620  78.7747310  36.3825400  46.9850020  84.6030510  42.7799210
  47.6292240  84.8089890  43.4572630  47.3479460  83.8418910  42.3270060
  40.5829190  69.4361820  36.0229430  40.4543820  69.4279720  36.9714350
  39.7591210  69.7744910  35.6720440  48.2582100  82.6062860  41.4976660
  48.9004330  81.9056020  41.6108830  48.7831450  83.3861300  41.3173550
  52.1037820  82.8911480  31.2215800  51.8775400  82.1741920  31.8140440
  51.7134020  82.6423920  30.3837550  50.0319720  83.4057760  44.7012720
  50.3675960  83.9924450  45.3790640  49.1120060  83.2750470  44.9310510
  37.8853850  86.9178340  31.9960260  38.2451490  87.5167680  31.3417530
  37.7446190  87.4638230  32.7695290  37.5823120  71.1952940  45.4836130
  36.8681640  71.3949860  46.0888740  38.0018160  70.4192510  45.8550930
  51.6854070  80.8083420  32.8829960  51.3975770  81.2696110  33.6707840
  52.4806240  80.3481190  33.1514180  37.8695710  85.1833200  46.4702660
  37.9786830  84.2427940  46.3298050  37.2176270  85.4487950  45.8216390
  45.8608300  83.4549090  47.8700780  45.5405170  82.7358330  48.4146470
  45.1866660  84.1304160  47.9436840  43.9022470  84.3009540  32.8133930
  43.8932570  85.0339230  32.1978440  42.9820830  84.0541120  32.9060890
  39.5029110  79.5224430  33.5580690  38.8957060  80.2623330  33.5675990
  39.9778460  79.6123790  32.7318890  49.0761900  73.6875250  43.2337580
  49.4442720  72.8670460  43.5617150  48.2160100  73.7477140  43.6493230
  46.8882070  84.3637780  31.4759120  46.9894050  84.1601770  30.5461100
  45.9883810  84.1096060  31.6806900  44.4107960  74.9218140  35.4583020
  43.7024110  75.3904480  35.8996630  44.6952440  74.2640150  36.0928210
  46.0363890  76.3414840  43.4575550  46.5349140  76.8160660  44.1227400
  46.1786840  75.4178360  43.6645580  48.4423390  71.6468800  36.8978810
  48.3191170  71.6654930  35.9488320  49.3907950  71.6947740  37.0177210
  45.5300180  86.8824100  36.1706790  45.7841680  86.8445490  35.2486160
  44.5812660  86.7557430  36.1635040  42.6142980  73.2303220  32.8333730
  43.4633510  73.6673370  32.7673920  42.2474250  73.5423480  33.6605790
  53.2430750  72.5582800  44.3003940  52.7404350  73.2988200  44.6397750
  54.0587410  72.9466800  43.9840730  51.5352760  77.8015980  37.7465300
  50.5942900  77.8166210  37.9212990  51.8496830  77.0151940  38.1925600
  41.5134400  79.4835580  31.3069260  42.2797670  79.3716940  31.8694690
  41.5909090  78.7873550  30.6546030  40.2081160  76.9160650  31.9902150
  40.2884750  75.9688160  32.1019550  41.1000910  77.2467530  32.0962810
  53.5378340  84.9724830  39.4219560  53.6625760  85.7956000  39.8943370
  54.4043900  84.7615560  39.0743710  41.0095870  87.0656040  39.0936690
  41.7458350  86.5171500  39.3645260  41.3936790  87.9312050  38.9542680
  37.8941350  83.1329610  34.9678200  36.9681130  83.3750750  34.9583610
  38.3597780  83.9603870  34.8462950  40.0154150  86.2502110  48.2822270
  40.8166880  86.5714160  48.6957670  39.5005970  85.8897690  49.0042180
  44.1198180  86.2386350  30.9162260  44.9126790  86.5275180  30.4644050
  43.6002530  85.8078520  30.2374740  48.8518780  82.3581980  48.2297680
  48.2456940  82.3813580  47.4893430  48.5472890  81.6265020  48.7664930
  50.2819150  86.0862270  46.8407090  51.2340900  86.0020290  46.7907330
  50.1347370  86.7503980  47.5140880  53.1728350  85.4656480  32.3399000
  52.8869860  85.0521620  31.5253180  52.9747900  86.3944190  32.2199520
  37.7351960  78.7375570  47.2258320  38.2390980  78.1582850  47.7974550
  36.9959380  79.0215800  47.7634690  44.6375580  81.4589760  30.7804610
  44.5326220  80.8442110  31.5065990  44.4699800  80.9355650  29.9967620
  44.7889900  80.1446560  46.7593840  44.0235570  80.7131560  46.6748510
  44.9705860  79.8522770  45.8662070  47.8778310  80.5209790  31.3846600
  47.3288410  80.9679090  32.0289340  48.4997570  80.0159040  31.9084270
  51.9313250  81.8751890  47.3168860  52.6722720  82.2127650  46.8136320
  51.1685930  82.0443950  46.7638630  39.7675040  76.8805160  48.1208390
  39.8080380  76.5819030  49.0293620  40.6220540  77.2812770  47.9615910
  43.5453430  79.4800710  33.2811900  43.9669850  79.3140580  34.1243290
  43.6704270  78.6700940  32.7867040  41.7080850  75.4597260  46.0882880
  41.1777310  74.9688210  45.4606220  42.3768920  75.8881460  45.5540810
  46.0581070  78.5038320  30.5289000  46.5786730  77.7887340  30.1630150
  46.7049470  79.1424190  30.8289510  50.6058910  79.9266720  45.8524070
  51.0199930  80.0811800  46.7014490  49.6709910  80.0521940  46.0149850
  51.0781080  77.2662880  47.8563220  51.6601850  76.5115200  47.7683700
  51.2542850  77.7970320  47.0794700  42.1953150  72.4259630  46.1680170
  42.1010020  71.8080380  45.4431040  41.6150540  73.1525920  45.9410080
  44.9614590  70.9832870  43.2007560  44.5131890  71.0057130  42.3553110
  44.3279790  70.5851890  43.7977860  45.3674140  79.8787200  43.8220000
  45.7862250  80.7219930  43.6496240  44.4482770  80.0159240  43.5926780
  47.7038040  77.6103380  45.2057840  47.8234250  77.0144520  45.9452680
  48.5632040  77.6473070  44.7859140  50.0425940  78.1640570  43.7820350
  49.5161160  78.6883190  43.1785490  50.3857280  78.7967960  44.4130080
  42.4412330  75.5533940  30.2270060  42.2401390  74.6901300  30.5883400
  42.2704380  75.4667300  29.2891660  43.2181560  86.1840210  44.9377730
  42.6802650  86.9086270  44.6186430  43.4715520  85.7070550  44.1475070
  44.4706810  74.1524730  46.4633660  45.0606500  73.8440580  47.1511480
  43.6527050  73.6804480  46.6193560  49.2900240  73.7690540  46.6966680
  48.6015760  73.1072080  46.6316670  50.0106260  73.3228810  47.1415140
  46.0743770  87.4191420  45.1964380  46.0002470  88.3226560  45.5036750
  45.1722610  87.1003320  45.1686450  46.6229100  86.5849930  32.8190740
  47.5179890  86.9234900  32.8409500  46.6546730  85.8629340  32.1915020
  40.2625260  81.9576980  31.0477740  40.7000130  82.5006650  31.7035320
  40.7472990  81.1323930  31.0574080  37.4771060  84.7466010  38.4998000
  37.8074070  83.8787070  38.2676640  37.9062060  84.9524530  39.3302960
  42.0732980  83.0775020  36.1599970  41.7728520  82.9539990  37.0603880
  41.9670470  82.2183610  35.7515700  37.9661270  85.6136600  41.2379630
  37.5292260  85.7937400  42.0703780  38.5338950  86.3711220  41.0961350
  53.6023450  85.1153600  45.5256940  53.0025440  85.1746160  44.7820860
  53.7317350  84.1758580  45.6553790  54.8424900  82.8571420  30.8626650
  54.0117860  82.9248070  31.3333880  55.0196730  83.7475540  30.5593510
  37.7985700  78.1256830  37.5968510  37.1434540  77.8568470  36.9528210
  38.6363650  78.0161310  37.1470490  55.3041330  80.4569000  38.2102780
  55.6750160  79.6736320  37.8038750  55.9443260  81.1458100  38.0320080
  52.2875090  81.8405580  43.6233100  51.4734930  82.2702740  43.8858890
  52.6949290  82.4523990  43.0102150  54.2465870  77.8322260  35.5162800
  53.8709470  77.0650190  35.0844090  53.5168990  78.2144960  36.0037730
  38.8361630  78.5109400  42.1371850  39.2034670  78.4236800  43.0167870
  38.2672450  77.7475950  42.0378710  53.6365490  76.9793780  45.1502320
  53.4051580  76.7506530  44.2500270  53.8970040  77.8993330  45.1047210
  38.3877630  75.4218490  46.0430270  37.4933680  75.3885250  46.3823980
  38.9275180  75.6205280  46.8081520  52.0753560  72.2050210  47.9282020
  52.9523740  72.2133610  48.3116020  52.0874400  71.4681050  47.3174370
  37.0123780  75.3355760  33.5393840  36.1087860  75.5985960  33.3645500
  37.4964400  75.6066930  32.7593800  53.5216830  76.0579750  38.8170040
  54.0454310  75.5642400  38.1860210  54.1076250  76.1930110  39.5617610
  53.7006550  76.1419620  42.3389590  52.7509260  76.1083160  42.4534580
  53.8819560  77.0519730  42.1039360  39.5550990  74.3921300  31.4488220
  40.2642690  73.9704520  30.9635500  38.8390930  74.4596530  30.8171570
  38.8917340  69.6966820  40.3913490  39.5393530  69.1464200  39.9508650
  39.3119180  69.9509970  41.2129300  54.4403960  73.9514050  37.2900130
  54.3303240  73.7970090  38.2282400  55.2011550  73.4234990  37.0475540
  52.7869680  69.8908180  43.7483130  53.4241900  70.5042320  44.1142320
  52.9344570  69.9268840  42.8032360  52.3451140  86.5924180  37.1501370
  52.9410210  86.2708750  36.4735790  52.6029290  86.1196000  37.9414640
  38.6449340  69.8522490  43.1338810  38.2964160  70.3086310  43.8996990
  38.3137040  68.9579620  43.2161240  40.2513710  83.0242090  47.2992000
  40.2083340  82.6535000  48.1806460  40.3824720  83.9619660  47.4393820
  43.9519740  84.5801680  42.9001720  43.7111100  84.8476240  42.0132240
  44.8922380  84.7507410  42.9552580  46.1574160  71.0434370  46.6558230
  46.0963050  71.6356200  47.4053640  47.0974540  70.9360330  46.5108490
  48.7948720  70.7004430  46.2950520  49.4089130  71.0183720  45.6331600
  49.3398280  70.2153020  46.9146380  55.2123900  86.5996060  43.7012360
  54.7182180  86.9964930  42.9839490  54.6037190  85.9745270  44.0949640
  39.3169980  69.3798690  46.4089580  39.8652970  69.1986740  45.6455690
  39.3825290  68.5892800  46.9445890  40.0901740  85.9704340  44.4189780
  39.4962060  85.8389040  45.1579820  40.0825580  85.1342480  43.9531880
  49.5356760  69.2636570  42.6219810  48.6616600  69.5971680  42.4192740
  49.4267510  68.7909750  43.4471680  50.4428740  71.4707440  44.0061530
  50.1142100  70.6559200  43.6263260  51.3911040  71.4277250  43.8827220
  52.8963350  87.2419480  40.9799100  52.4366320  87.9935290  40.6057120
  52.2675810  86.5225950  40.9213900  39.7213970  83.3362720  43.3697820
  38.9948030  82.7168010  43.3023770  39.7823120  83.7303330  42.4995900
  43.3259070  85.5507720  40.1547230  43.8424090  84.9395080  39.6295490
  43.9756450  86.0536500  40.6458240  46.0654570  86.4416210  40.9816210
  46.3532380  86.1870510  40.1049220  46.5777790  85.8893570  41.5721780
  47.2831580  70.1806410  41.5612720  46.5003370  70.6551910  41.8409480
  46.9894510  69.2761240  41.4525900  51.8352650  70.8829510  39.6061810
  52.2760740  70.8274610  38.7583410  51.5660240  71.7987520  39.6771990
  53.6991220  70.5144750  37.6170630  53.6379620  69.5705970  37.4701650
  54.4783250  70.6224840  38.1624090  38.0043970  86.6537110  36.5794580
  37.8366010  86.0207790  37.2776470  37.1378480  86.8596510  36.2288770
  38.6271990  70.4853890  34.0826440  39.3851350  70.5982770  33.5090470
  38.1649160  71.3223090  34.0369870  45.1685800  72.5993160  37.0728750
  44.3560310  72.2250050  36.7324630  45.6727440  71.8438240  37.3749940
  49.6710780  69.2635610  38.3111820  50.2740150  69.8355820  38.7860340
  48.9303770  69.8275050  38.0885720  39.6106670  85.3470340  34.0244720
  39.0854290  85.7278370  33.3206680  39.5351250  85.9721110  34.7454430
  40.9997140  71.0117940  32.6228410  41.5289900  70.2247740  32.4936360
  41.6325460  71.6909130  32.8563940  43.1934980  70.7493080  35.6773800
  42.5637720  70.0480390  35.8443930  42.6540120  71.5097210  35.4606960
  46.1326930  87.3632310  48.3484410  47.0594240  87.1276580  48.3920370
  46.1177360  88.1904310  47.8670440  54.3671990  86.9057880  35.3458660
  54.5424180  86.2195620  34.7019580  53.6693560  87.4304930  34.9535330
  43.3190540  70.0277060  48.1126290  43.0374810  70.5310660  47.3487110
  43.7010240  69.2298810  47.7468420  42.2099640  87.2952720  32.8993970
  42.9418460  87.0112000  32.3517860  42.4693310  87.0566000  33.7893350
  41.3714430  83.4117450  32.9040300  40.7423310  83.8802550  33.4526130
  41.4862260  82.5666670  33.3386490  49.9206000  69.4430640  48.6906760
  49.8071450  69.7625250  49.5858280  50.7375740  69.8443150  48.3944040
  52.7004490  86.5902170  48.1725450  53.4929810  86.0951400  47.9651410
  52.9937640  87.2692310  48.7801060  48.8264150  77.4623110  19.0541500
  48.7458200  76.5477720  18.7833210  48.4128570  77.9590180  18.3481210
  46.9582190  79.2402130  20.9350770  46.1824290  78.7602570  21.2249340
  47.6095120  78.5607780  20.7606930  40.9748020  79.5521940  21.8126530
  40.1432900  79.2970650  22.2123040  41.5829000  79.6232710  22.5484450
  50.9789620  83.6462320  19.7149900  50.5171150  82.8749560  20.0437070
  51.7915170  83.6728390  20.2202350  40.9549280  83.5862030  22.0084550
  41.2577320  82.6959770  21.8294770  41.6992870  84.1432250  21.7806800
  39.3839970  74.5123830  15.5968920  38.4956670  74.8539800  15.4948800
  39.6681160  74.3124150  14.7049750  37.3472980  77.1129480  21.4808620
  37.9189090  76.3451680  21.4812260  37.3474520  77.4118240  20.5715230
  47.2052930  85.9320330  19.3353890  46.5864370  86.3877830  18.7648330
  48.0604710  86.0871790  18.9343590  46.3991180  81.9159320  20.9420930
  46.3299460  80.9749260  20.7810060  47.1611040  82.0060730  21.5143500
  38.5897850  72.5213840  23.2677550  38.4100690  71.6239590  23.5480310
  38.1877930  73.0685710  23.9424500  47.4296350  74.7229700  21.1689860
  47.8061170  73.8501580  21.0563530  47.3315860  75.0588400  20.2780300
  41.5601360  73.0955330  16.6307300  41.6668110  73.9959060  16.9376060
  40.6493720  73.0473300  16.3401950  51.2120470  72.2180140  18.1018200
  52.0330090  71.7276710  18.1443680  51.2454550  72.8077800  18.8550040
  39.2084520  75.0174340  21.8759890  39.8894630  75.2812710  22.4947290
  38.8932570  74.1775210  22.2097900  43.4009090  76.0641700  20.9632480
  43.9087310  76.5622670  21.6037500  43.9322330  75.2876900  20.7871840
  48.0716280  80.8159570  16.7285800  47.4533550  81.2809020  16.1648520
  48.5839530  81.5087050  17.1455310  42.9348040  80.3435440  23.4069400
  42.6017420  80.9704360  24.0490470  43.1114720  80.8697320  22.6271070
  51.4481950  74.1580520  20.8745740  50.7437520  74.4465410  21.4548850
  51.8094110  74.9680630  20.5145300  41.3660520  72.4150220  23.2366350
  41.7077330  73.2592270  22.9420220  40.4276330  72.5633960  23.3531690
  42.1467140  82.3116240  25.2218580  42.7641140  82.9867320  24.9403030
  41.2860260  82.7204220  25.1306080  37.4399480  81.5016100  14.1025430
  37.0627460  81.9903200  13.3710330  37.6972550  82.1741380  14.7331960
  53.0644730  83.7755650  23.1373220  52.3808250  84.4454760  23.1289890
  53.6039020  83.9736300  22.3718080  54.5168870  73.6035310  21.2654950
  53.5693780  73.6374290  21.3970380  54.8418860  74.4174260  21.6504310
  45.0488410  69.9032490  19.5610940  45.3563390  69.3479380  18.8446440
  44.1189110  70.0376950  19.3783930  50.6003470  85.6199780  21.8518400
  50.6130630  85.2162070  20.9840660  50.0478690  86.3947070  21.7479830
  51.8948890  82.3416000  16.9408570  51.7845220  81.3990330  17.0657990
  51.8917140  82.7031640  17.8271330  49.9988910  80.5229620  23.1801010
  50.4157700  80.3089730  22.3454470  50.7228730  80.7802410  23.7509630
  47.4369170  77.9681320  16.2971060  46.5098450  77.9018700  16.5259530
  47.5893990  78.9061450  16.1826300  47.4238250  74.2398320  13.2938220
  46.4841920  74.4012280  13.3790680  47.7421510  74.9584000  12.7474210
  53.9451010  78.9216840  23.2717250  53.1169640  78.9909930  22.7967380
  54.5401490  79.5071150  22.8033080  51.4666460  79.5301620  16.8006310
  50.8478880  79.1921170  16.1532610  51.4490910  78.8861380  17.5085500
  50.9093020  75.7086160  24.2172120  50.4964200  76.5339870  24.4712110
  50.1768970  75.1231200  24.0248480  43.0425810  78.4946060  19.0790790
  42.6382810  77.7823310  18.5836690  43.1288930  78.1499300  19.9678830
  43.5107510  82.1813620  21.2430000  43.2135800  81.5759090  20.5637780
  44.4607330  82.2190930  21.1319360  41.7554430  75.2689270  22.8589830
  42.3069020  75.3784610  22.0843080  42.2697940  75.6426870  23.5745060
  51.5993120  85.7545490  24.9053100  51.1223680  86.5617680  24.7125710
  50.9154910  85.1023820  25.0579310  42.6025940  81.9195310  27.8937800
  41.7054470  82.1435280  28.1411200  42.6278810  82.0430250  26.9449200
  49.6431160  78.7688430  13.8079060  50.0824440  77.9310860  13.6616880
  50.3559580  79.4017830  13.8943200  41.4297160  78.7908630  26.4695170
  41.2904930  79.6631430  26.8382570  40.5478520  78.4481440  26.3243110
  47.7526540  83.7084500  17.7760300  48.1922450  84.4508830  17.3615690
  47.6913430  83.9511070  18.6999260  43.2277510  84.7330330  28.6780320
  43.1992940  85.1373280  27.8108750  43.0642480  83.8040690  28.5151920
  53.2248300  70.0231240  12.1220100  52.9120960  70.1158070  13.0219170
  53.9860770  70.6012270  12.0717530  39.7430440  77.3891040  16.5797440
  39.6228040  78.1153130  15.9678710  39.4331330  76.6193950  16.1025350
  55.1792330  85.5157430  29.9744490  55.6552050  85.9940320  30.6533570
  55.7999490  85.4474920  29.2489990  37.3815810  80.5606180  22.3866080
  37.4596230  80.6954950  21.4421800  37.9957490  79.8522070  22.5794200
  38.6263440  82.2606370  18.7972260  38.2191520  82.4020960  17.9425860
  39.5176450  81.9766530  18.5943470  54.5825580  82.7070280  27.1344500
  54.7088640  82.4682160  26.2161680  54.6246960  81.8754820  27.6066580
  48.4442320  86.4098280  25.7039310  48.9586990  86.3206290  26.5061740
  47.6011400  86.7557980  25.9967220  50.4196720  86.6953620  15.1323310
  50.2597860  86.4056560  16.0305140  50.2543430  85.9193750  14.5968540
  42.8985100  86.4752150  16.9094930  42.7227580  85.5587690  16.6962730
  42.0440840  86.8339440  17.1492730  50.1222850  84.2041180  13.6921310
  49.4288010  84.2018470  13.0323590  50.8645710  83.7800500  13.2615480
  49.6872780  85.8303890  17.7669800  50.1429730  85.0493270  18.0808420
  50.0265300  86.5410710  18.3110980  37.4375330  81.6020350  24.9260540
  37.6006370  81.1325710  24.1079910  37.9027780  81.0943910  25.5909380
  42.2094100  70.7326110  19.9621110  41.7662250  71.5135650  19.6305630
  42.7679090  71.0556000  20.6692050  46.4963910  73.5994630  25.5656430
  46.0343280  73.8077650  26.3776370  46.0942020  72.7853980  25.2627100
  48.5918130  76.3205330  28.7951880  48.9171540  75.4869080  28.4554110
  49.3798460  76.8433850  28.9430210  45.3252920  70.3536810  14.8426940
  44.7007100  70.3496680  15.5680250  45.2383040  69.4867770  14.4462910
  44.2470000  71.2773440  21.8210710  44.5442330  72.1836270  21.7402730
  44.7955560  70.7892220  21.2070280  42.0008320  75.8559680  17.6902360
  41.7749240  75.6396850  18.5948980  41.2200850  76.2888140  17.3448330
  49.2306080  75.8623050  16.2893010  48.6314970  76.5858850  16.1056630
  49.7785690  75.7999830  15.5069460  44.4407530  76.7545260  28.3562630
  44.3451130  75.8139990  28.2063030  45.2839510  76.9760330  27.9610700
  47.8370950  74.4986590  18.3196290  48.2300520  74.8158790  17.5064980
  48.1987800  73.6198470  18.4340810  39.5718070  73.1658930  26.5096410
  39.1781460  74.0134140  26.7169190  38.8836470  72.5285300  26.7005050
  46.1463120  73.2493900  29.5793150  45.4561440  73.0566100  30.2139240
  46.8895420  73.5328540  30.1117450  36.8735120  71.0887390  20.5426490
  36.5848170  71.6590250  21.2551470  37.6180880  70.6091840  20.9057720
  37.0605350  75.0307510  11.7529210  36.9780020  75.9738270  11.8944200
  36.7088410  74.8882420  10.8741560  48.4226090  77.0892340  22.4147070
  47.6907210  77.5979150  22.7637170  48.0250430  76.2722320  22.1135850
  44.8603480  73.7646540  20.8199560  44.8639540  73.3236490  19.9704100
  45.7554600  74.0863870  20.9271380  40.7105860  73.6473030  19.7793770
  40.3705910  74.1248260  20.5360820  39.9483180  73.1938150  19.4194870
  44.9223630  74.7658620  13.8106320  45.0436450  74.7245100  14.7592140
  44.5372140  75.6282770  13.6553050  48.8852000  72.5426020  21.8270010
  48.9024740  72.9934670  22.6711860  48.6367580  71.6431660  22.0403450
  43.9345130  77.0759760  13.2089620  43.3662030  76.6278010  12.5825530
  44.6434130  77.4352540  12.6754770  39.0114310  80.9771780  27.0856350
  38.6269100  80.3365450  27.6839310  39.3226500  81.6807900  27.6551080
  45.1611450  77.8248320  22.5664970  45.5281580  77.3506890  23.3126310
  44.9716510  78.6989890  22.9073310  38.0251940  72.5692010  18.6958440
  37.7398860  72.2047680  19.5337060  37.9630800  71.8372470  18.0821580
  42.9510820  76.8656960  24.8849180  42.6467890  77.7448940  25.1099540
  43.9057280  76.9256750  24.9206620  41.4792610  81.0717950  15.4816030
  40.7054870  80.5315570  15.3214750  42.2087240  80.5524560  15.1433790
  52.2380590  80.0683310  21.2742420  52.9579710  80.5638600  20.8838530
  52.0362410  79.3901200  20.6296290  47.6990530  71.4621270  15.4171810
  46.8855140  70.9634440  15.3417120  47.5052480  72.3019520  15.0008160
  47.6199390  80.1392370  27.1611420  47.5536700  79.2188040  26.9069010
  46.9904530  80.2367810  27.8756060  50.4138920  75.8340920  13.7133970
  51.3018540  76.1458150  13.5385310  50.3844010  74.9613170  13.3214550
  41.5230010  80.7398330  19.1194840  42.0408680  79.9366590  19.0651730
  41.0714030  80.6777470  19.9611670  46.4099510  82.0064610  14.3922140
  46.7515210  82.7506840  13.8965460  45.5812220  82.3195730  14.7546970
  39.0074550  77.7059700  26.0320540  38.6489490  78.3713550  26.6193880
  38.7129110  76.8743250  26.4033160  42.2087670  78.1643940  28.9160090
  41.9087810  78.3101120  28.0187910  42.9798910  77.6049230  28.8233480
  47.5516120  82.9612940  26.9115220  47.5660660  82.0293900  26.6934130
  46.8441220  83.0472700  27.5504990  52.6853190  77.1452760  13.1813830
  52.6016910  77.5766980  12.3310270  53.4047380  77.6051110  13.6140650
  53.7140440  83.9995020  15.9095960  53.0716600  83.3450640  16.1839680
  53.3271100  84.4050110  15.1336630  49.2926920  81.3280450  19.7567650
  49.6450740  80.7308580  19.0969020  48.4089250  81.0024680  19.9275900
  45.3790200  82.0878140  17.1638060  46.0661330  82.6347350  17.5445650
  44.5922620  82.6318870  17.1987670  37.5182600  77.7050960  12.6555140
  38.3877450  77.9875760  12.9391060  37.0272920  78.5186830  12.5403950
  44.6817410  79.0924170  16.7763420  45.1380190  79.9029420  17.0023610
  44.3305620  78.7747310  17.6081910  46.9850020  84.6030510  24.0055720
  47.6292240  84.8089890  24.6829140  47.3479460  83.8418910  23.5526570
  40.5829190  69.4361820  17.2485940  40.4543820  69.4279720  18.1970860
  39.7591210  69.7744910  16.8976950  48.2582100  82.6062860  22.7233170
  48.9004330  81.9056020  22.8365340  48.7831450  83.3861300  22.5430060
  52.1037820  82.8911480  12.4472310  51.8775400  82.1741920  13.0396950
  51.7134020  82.6423920  11.6094060  50.0319720  83.4057760  25.9269230
  50.3675960  83.9924450  26.6047150  49.1120060  83.2750470  26.1567020
  37.8853850  86.9178340  13.2216770  38.2451490  87.5167680  12.5674040
  37.7446190  87.4638230  13.9951800  51.6854070  80.8083420  14.1086470
  51.3975770  81.2696110  14.8964350  52.4806240  80.3481190  14.3770690
  37.8695710  85.1833200  27.6959170  37.9786830  84.2427940  27.5554560
  37.2176270  85.4487950  27.0472900  45.8608300  83.4549090  29.0957290
  45.5405170  82.7358330  29.6402980  45.1866660  84.1304160  29.1693350
  43.9022470  84.3009540  14.0390440  43.8932570  85.0339230  13.4234950
  42.9820830  84.0541120  14.1317400  39.5029110  79.5224430  14.7837200
  38.8957060  80.2623330  14.7932500  39.9778460  79.6123790  13.9575400
  49.0761900  73.6875250  24.4594090  49.4442720  72.8670460  24.7873660
  48.2160100  73.7477140  24.8749740  52.4423930  72.6432190  15.2681650
  51.8137090  72.7477860  14.5539880  51.9475850  72.8628970  16.0575530
  46.8882070  84.3637780  12.7015630  46.9894050  84.1601770  11.7717610
  45.9883810  84.1096060  12.9063410  44.4107960  74.9218140  16.6839530
  43.7024110  75.3904480  17.1253140  44.6952440  74.2640150  17.3184720
  46.0363890  76.3414840  24.6832060  46.5349140  76.8160660  25.3483910
  46.1786840  75.4178360  24.8902090  48.4423390  71.6468800  18.1235320
  48.3191170  71.6654930  17.1744830  49.3907950  71.6947740  18.2433720
  45.5300180  86.8824100  17.3963300  45.7841680  86.8445490  16.4742670
  44.5812660  86.7557430  17.3891550  42.6142980  73.2303220  14.0590240
  43.4633510  73.6673370  13.9930430  42.2474250  73.5423480  14.8862300
  51.5352760  77.8015980  18.9721810  50.5942900  77.8166210  19.1469500
  51.8496830  77.0151940  19.4182110  41.5134400  79.4835580  12.5325770
  42.2797670  79.3716940  13.0951200  41.5909090  78.7873550  11.8802540
  40.2081160  76.9160650  13.2158660  40.2884750  75.9688160  13.3276060
  41.1000910  77.2467530  13.3219320  53.5378340  84.9724830  20.6476070
  53.6625760  85.7956000  21.1199880  54.4043900  84.7615560  20.3000220
  41.0095870  87.0656040  20.3193200  41.7458350  86.5171500  20.5901770
  41.3936790  87.9312050  20.1799190  37.8941350  83.1329610  16.1934710
  36.9681130  83.3750750  16.1840120  38.3597780  83.9603870  16.0719460
  40.0154150  86.2502110  29.5078780  40.8166880  86.5714160  29.9214180
  39.5005970  85.8897690  30.2298690  44.1198180  86.2386350  12.1418770
  44.9126790  86.5275180  11.6900560  43.6002530  85.8078520  11.4631250
  48.8518780  82.3581980  29.4554190  48.2456940  82.3813580  28.7149940
  48.5472890  81.6265020  29.9921440  50.2819150  86.0862270  28.0663600
  51.2340900  86.0020290  28.0163840  50.1347370  86.7503980  28.7397390
  53.1728350  85.4656480  13.5655510  52.8869860  85.0521620  12.7509690
  52.9747900  86.3944190  13.4456030  37.7351960  78.7375570  28.4514830
  38.2390980  78.1582850  29.0231060  36.9959380  79.0215800  28.9891200
  44.6375580  81.4589760  12.0061120  44.5326220  80.8442110  12.7322500
  44.4699800  80.9355650  11.2224130  44.7889900  80.1446560  27.9850350
  44.0235570  80.7131560  27.9005020  44.9705860  79.8522770  27.0918580
  47.8778310  80.5209790  12.6103110  47.3288410  80.9679090  13.2545850
  48.4997570  80.0159040  13.1340780  51.9313250  81.8751890  28.5425370
  52.6722720  82.2127650  28.0392830  51.1685930  82.0443950  27.9895140
  39.7675040  76.8805160  29.3464900  39.8080380  76.5819030  30.2550130
  40.6220540  77.2812770  29.1872420  43.5453430  79.4800710  14.5068410
  43.9669850  79.3140580  15.3499800  43.6704270  78.6700940  14.0123550
  41.7080850  75.4597260  27.3139390  41.1777310  74.9688210  26.6862730
  42.3768920  75.8881460  26.7797320  46.0581070  78.5038320  11.7545510
  46.5786730  77.7887340  11.3886660  46.7049470  79.1424190  12.0546020
  50.6058910  79.9266720  27.0780580  51.0199930  80.0811800  27.9271000
  49.6709910  80.0521940  27.2406360  42.1953150  72.4259630  27.3936680
  42.1010020  71.8080380  26.6687550  41.6150540  73.1525920  27.1666590
  45.3674140  79.8787200  25.0476510  45.7862250  80.7219930  24.8752750
  44.4482770  80.0159240  24.8183290  47.7038040  77.6103380  26.4314350
  47.8234250  77.0144520  27.1709190  48.5632040  77.6473070  26.0115650
  50.0425940  78.1640570  25.0076860  49.5161160  78.6883190  24.4042000
  50.3857280  78.7967960  25.6386590  42.4412330  75.5533940  11.4526570
  42.2401390  74.6901300  11.8139910  42.2704380  75.4667300  10.5148170
  43.2181560  86.1840210  26.1634240  42.6802650  86.9086270  25.8442940
  43.4715520  85.7070550  25.3731580  44.4706810  74.1524730  27.6890170
  45.0606500  73.8440580  28.3767990  43.6527050  73.6804480  27.8450070
  49.2900240  73.7690540  27.9223190  48.6015760  73.1072080  27.8573180
  50.0106260  73.3228810  28.3671650  49.9200640  70.3642170  13.9813450
  50.2002930  69.5210070  14.3372870  49.1466370  70.5965280  14.4952200
  41.2395130  72.6534560  11.4404450  41.5421030  72.6601990  10.5323600
  41.9789720  72.3032420  11.9372110  46.0743770  87.4191420  26.4220890
  46.0002470  88.3226560  26.7293260  45.1722610  87.1003320  26.3942960
  44.4580060  71.5969180  12.4260650  44.1102060  70.9193170  11.8463100
  44.6592830  71.1358690  13.2404040  46.6229100  86.5849930  14.0447250
  47.5179890  86.9234900  14.0666010  46.6546730  85.8629340  13.4171530
  40.2625260  81.9576980  12.2734250  40.7000130  82.5006650  12.9291830
  40.7472990  81.1323930  12.2830590  37.4771060  84.7466010  19.7254510
  37.8074070  83.8787070  19.4933150  37.9062060  84.9524530  20.5559470
  42.0732980  83.0775020  17.3856480  41.7728520  82.9539990  18.2860390
  41.9670470  82.2183610  16.9772210  37.9661270  85.6136600  22.4636140
  37.5292260  85.7937400  23.2960290  38.5338950  86.3711220  22.3217860
  53.6023450  85.1153600  26.7513450  53.0025440  85.1746160  26.0077370
  53.7317350  84.1758580  26.8810300  54.8424900  82.8571420  12.0883160
  54.0117860  82.9248070  12.5590390  55.0196730  83.7475540  11.7850020
  54.2981360  79.6018900  14.5917360  55.0600270  80.1715550  14.6977050
  54.3135730  79.0346100  15.3625670  37.7985700  78.1256830  18.8225020
  37.1434540  77.8568470  18.1784720  38.6363650  78.0161310  18.3727000
  55.3041330  80.4569000  19.4359290  55.6750160  79.6736320  19.0295260
  55.9443260  81.1458100  19.2576590  52.2875090  81.8405580  24.8489610
  51.4734930  82.2702740  25.1115400  52.6949290  82.4523990  24.2358660
  54.3500530  79.8953270  11.7489880  54.6249370  80.8032150  11.6209100
  54.1611270  79.8315800  12.6851870  50.7476140  72.9198120  13.0443510
  51.1661020  72.7329100  12.2040170  50.4412200  72.0677170  13.3546440
  54.2465870  77.8322260  16.7419310  53.8709470  77.0650190  16.3100600
  53.5168990  78.2144960  17.2294240  38.8361630  78.5109400  23.3628360
  39.2034670  78.4236800  24.2424380  38.2672450  77.7475950  23.2635220
  38.3877630  75.4218490  27.2686780  37.4933680  75.3885250  27.6080490
  38.9275180  75.6205280  28.0338030  37.0123780  75.3355760  14.7650350
  36.1087860  75.5985960  14.5902010  37.4964400  75.6066930  13.9850310
  53.5216830  76.0579750  20.0426550  54.0454310  75.5642400  19.4116720
  54.1076250  76.1930110  20.7874120  39.5550990  74.3921300  12.6744730
  40.2642690  73.9704520  12.1892010  38.8390930  74.4596530  12.0428080
  39.2025150  70.4460630  11.7147380  39.9253280  70.9869570  12.0328600
  39.4749670  70.1724050  10.8388920  53.0116800  75.3153100  15.9818960
  53.5075920  75.0823970  16.7667840  52.8132870  74.4764940  15.5656600
  38.8917340  69.6966820  21.6170000  39.5393530  69.1464200  21.1765160
  39.3119180  69.9509970  22.4385810  54.4403960  73.9514050  18.5156640
  54.3303240  73.7970090  19.4538910  55.2011550  73.4234990  18.2732050
  55.3294230  71.7821970  11.7562780  56.2543540  71.6503150  11.5481070
  55.3070020  71.8614790  12.7099230  55.4032720  72.5532630  14.3819490
  54.6084220  72.4877750  14.9112400  55.6076000  73.4883270  14.3704840
  52.3451140  86.5924180  18.3757880  52.9410210  86.2708750  17.6992300
  52.6029290  86.1196000  19.1671150  40.2513710  83.0242090  28.5248510
  40.2083340  82.6535000  29.4062970  40.3824720  83.9619660  28.6650330
  43.9519740  84.5801680  24.1258230  43.7111100  84.8476240  23.2388750
  44.8922380  84.7507410  24.1809090  55.2123900  86.5996060  24.9268870
  54.7182180  86.9964930  24.2096000  54.6037190  85.9745270  25.3206150
  40.0901740  85.9704340  25.6446290  39.4962060  85.8389040  26.3836330
  40.0825580  85.1342480  25.1788390  49.5356760  69.2636570  23.8476320
  48.6616600  69.5971680  23.6449250  49.4267510  68.7909750  24.6728190
  50.4428740  71.4707440  25.2318040  50.1142100  70.6559200  24.8519770
  51.3911040  71.4277250  25.1083730  52.8963350  87.2419480  22.2055610
  52.4366320  87.9935290  21.8313630  52.2675810  86.5225950  22.1470410
  39.7213970  83.3362720  24.5954330  38.9948030  82.7168010  24.5280280
  39.7823120  83.7303330  23.7252410  43.3259070  85.5507720  21.3803740
  43.8424090  84.9395080  20.8552000  43.9756450  86.0536500  21.8714750
  46.0654570  86.4416210  22.2072720  46.3532380  86.1870510  21.3305730
  46.5777790  85.8893570  22.7978290  47.2831580  70.1806410  22.7869230
  46.5003370  70.6551910  23.0665990  46.9894510  69.2761240  22.6782410
  51.8352650  70.8829510  20.8318320  52.2760740  70.8274610  19.9839920
  51.5660240  71.7987520  20.9028500  53.6991220  70.5144750  18.8427140
  53.6379620  69.5705970  18.6958160  54.4783250  70.6224840  19.3880600
  38.0043970  86.6537110  17.8051090  37.8366010  86.0207790  18.5032980
  37.1378480  86.8596510  17.4545280  38.6271990  70.4853890  15.3082950
  39.3851350  70.5982770  14.7346980  38.1649160  71.3223090  15.2626380
  45.1685800  72.5993160  18.2985260  44.3560310  72.2250050  17.9581140
  45.6727440  71.8438240  18.6006450  49.6710780  69.2635610  19.5368330
  50.2740150  69.8355820  20.0116850  48.9303770  69.8275050  19.3142230
  52.8145380  69.6657170  14.8108610  53.0096010  70.5640620  15.0776040
  52.0275250  69.4344250  15.3041560  39.6106670  85.3470340  15.2501230
  39.0854290  85.7278370  14.5463190  39.5351250  85.9721110  15.9710940
  40.9997140  71.0117940  13.8484920  41.5289900  70.2247740  13.7192870
  41.6325460  71.6909130  14.0820450  43.1934980  70.7493080  16.9030310
  42.5637720  70.0480390  17.0700440  42.6540120  71.5097210  16.6863470
  46.1326930  87.3632310  29.5740920  47.0594240  87.1276580  29.6176880
  46.1177360  88.1904310  29.0926950  54.3671990  86.9057880  16.5715170
  54.5424180  86.2195620  15.9276090  53.6693560  87.4304930  16.1791840
  42.2099640  87.2952720  14.1250480  42.9418460  87.0112000  13.5774370
  42.4693310  87.0566000  15.0149860  41.3714430  83.4117450  14.1296810
  40.7423310  83.8802550  14.6782640  41.4862260  82.5666670  14.5643000
  52.7004490  86.5902170  29.3981960  53.4929810  86.0951400  29.1907920
  52.9937640  87.2692310  30.0057570  46.9582190  79.2402130   2.1607280
  46.1824290  78.7602570   2.4505850  47.6095120  78.5607780   1.9863440
  40.9748020  79.5521940   3.0383040  40.1432900  79.2970650   3.4379550
  41.5829000  79.6232710   3.7740960  40.9549280  83.5862030   3.2341060
  41.2577320  82.6959770   3.0551280  41.6992870  84.1432250   3.0063310
  37.3472980  77.1129480   2.7065130  37.9189090  76.3451680   2.7068770
  37.3474520  77.4118240   1.7971740  46.3991180  81.9159320   2.1677440
  46.3299460  80.9749260   2.0066570  47.1611040  82.0060730   2.7400010
  38.5897850  72.5213840   4.4934060  38.4100690  71.6239590   4.7736820
  38.1877930  73.0685710   5.1681010  47.4296350  74.7229700   2.3946370
  47.8061170  73.8501580   2.2820040  47.3315860  75.0588400   1.5036810
  39.2084520  75.0174340   3.1016400  39.8894630  75.2812710   3.7203800
  38.8932570  74.1775210   3.4354410  43.4009090  76.0641700   2.1888990
  43.9087310  76.5622670   2.8294010  43.9322330  75.2876900   2.0128350
  55.5020020  74.2346890   5.8918340  54.7972190  74.6228600   5.3733450
  55.7677940  74.9297180   6.4939270  41.6845190  70.7040260   6.4552410
  41.6863630  71.2212650   5.6498310  40.8549500  70.2270440   6.4322340
  42.9348040  80.3435440   4.6325910  42.6017420  80.9704360   5.2746980
  43.1114720  80.8697320   3.8527580  51.4481950  74.1580520   2.1002250
  50.7437520  74.4465410   2.6805360  51.8094110  74.9680630   1.7401810
  41.3660520  72.4150220   4.4622860  41.7077330  73.2592270   4.1676730
  40.4276330  72.5633960   4.5788200  42.1467140  82.3116240   6.4475090
  42.7641140  82.9867320   6.1659540  41.2860260  82.7204220   6.3562590
  53.0644730  83.7755650   4.3629730  52.3808250  84.4454760   4.3546400
  53.6039020  83.9736300   3.5974590  54.5168870  73.6035310   2.4911460
  53.5693780  73.6374290   2.6226890  54.8418860  74.4174260   2.8760820
  50.6003470  85.6199780   3.0774910  50.6130630  85.2162070   2.2097170
  50.0478690  86.3947070   2.9736340  49.9988910  80.5229620   4.4057520
  50.4157700  80.3089730   3.5710980  50.7228730  80.7802410   4.9766140
  53.9451010  78.9216840   4.4973760  53.1169640  78.9909930   4.0223890
  54.5401490  79.5071150   4.0289590  50.9093020  75.7086160   5.4428630
  50.4964200  76.5339870   5.6968620  50.1768970  75.1231200   5.2504990
  43.5107510  82.1813620   2.4686510  43.2135800  81.5759090   1.7894290
  44.4607330  82.2190930   2.3575870  41.7554430  75.2689270   4.0846340
  42.3069020  75.3784610   3.3099590  42.2697940  75.6426870   4.8001570
  51.5993120  85.7545490   6.1309610  51.1223680  86.5617680   5.9382220
  50.9154910  85.1023820   6.2835820  42.6025940  81.9195310   9.1194310
  41.7054470  82.1435280   9.3667710  42.6278810  82.0430250   8.1705710
  41.4297160  78.7908630   7.6951680  41.2904930  79.6631430   8.0639080
  40.5478520  78.4481440   7.5499620  43.2277510  84.7330330   9.9036830
  43.1992940  85.1373280   9.0365260  43.0642480  83.8040690   9.7408430
  55.1792330  85.5157430  11.2001000  55.6552050  85.9940320  11.8790080
  55.7999490  85.4474920  10.4746500  37.3815810  80.5606180   3.6122590
  37.4596230  80.6954950   2.6678310  37.9957490  79.8522070   3.8050710
  54.5825580  82.7070280   8.3601010  54.7088640  82.4682160   7.4418190
  54.6246960  81.8754820   8.8323090  48.4442320  86.4098280   6.9295820
  48.9586990  86.3206290   7.7318250  47.6011400  86.7557980   7.2223730
  54.4349590  74.7602740   9.3250750  53.8193860  75.2682410   8.7966210
  54.1146010  73.8601070   9.2676690  37.4375330  81.6020350   6.1517050
  37.6006370  81.1325710   5.3336420  37.9027780  81.0943910   6.8165890
  46.4963910  73.5994630   6.7912940  46.0343280  73.8077650   7.6032880
  46.0942020  72.7853980   6.4883610  51.4968420  74.8203580   7.9209600
  50.6462010  74.5209330   8.2418670  51.3370210  75.0645590   7.0093420
  48.5918130  76.3205330  10.0208390  48.9171540  75.4869080   9.6810620
  49.3798460  76.8433850  10.1686720  44.2470000  71.2773440   3.0467220
  44.5442330  72.1836270   2.9659240  44.7955560  70.7892220   2.4326790
  44.4407530  76.7545260   9.5819140  44.3451130  75.8139990   9.4319540
  45.2839510  76.9760330   9.1867210  39.5718070  73.1658930   7.7352920
  39.1781460  74.0134140   7.9425700  38.8836470  72.5285300   7.9261560
  46.1463120  73.2493900  10.8049660  45.4561440  73.0566100  11.4395750
  46.8895420  73.5328540  11.3373960  36.8735120  71.0887390   1.7683000
  36.5848170  71.6590250   2.4807980  37.6180880  70.6091840   2.1314230
  48.4226090  77.0892340   3.6403580  47.6907210  77.5979150   3.9893680
  48.0250430  76.2722320   3.3392360  48.8852000  72.5426020   3.0526520
  48.9024740  72.9934670   3.8968370  48.6367580  71.6431660   3.2659960
  52.3122750  69.9558200   8.8912900  52.6368520  69.2247860   9.4170880
  52.3479260  69.6371840   7.9893890  39.0114310  80.9771780   8.3112860
  38.6269100  80.3365450   8.9095820  39.3226500  81.6807900   8.8807590
  45.1611450  77.8248320   3.7921480  45.5281580  77.3506890   4.5382820
  44.9716510  78.6989890   4.1329820  42.9510820  76.8656960   6.1105690
  42.6467890  77.7448940   6.3356050  43.9057280  76.9256750   6.1463130
  52.2380590  80.0683310   2.4998930  52.9579710  80.5638600   2.1095040
  52.0362410  79.3901200   1.8552800  47.6199390  80.1392370   8.3867930
  47.5536700  79.2188040   8.1325520  46.9904530  80.2367810   9.1012570
  39.0074550  77.7059700   7.2577050  38.6489490  78.3713550   7.8450390
  38.7129110  76.8743250   7.6289670  42.2087670  78.1643940  10.1416600
  41.9087810  78.3101120   9.2444420  42.9798910  77.6049230  10.0489990
  47.5516120  82.9612940   8.1371730  47.5660660  82.0293900   7.9190640
  46.8441220  83.0472700   8.7761500  53.7627330  79.6020280   7.4840310
  53.0375520  80.1949060   7.2869700  54.2902790  79.5943820   6.6853680
  46.9850020  84.6030510   5.2312230  47.6292240  84.8089890   5.9085650
  47.3479460  83.8418910   4.7783080  48.2582100  82.6062860   3.9489680
  48.9004330  81.9056020   4.0621850  48.7831450  83.3861300   3.7686570
  50.0319720  83.4057760   7.1525740  50.3675960  83.9924450   7.8303660
  49.1120060  83.2750470   7.3823530  37.5823120  71.1952940   7.9349150
  36.8681640  71.3949860   8.5401760  38.0018160  70.4192510   8.3063950
  37.8695710  85.1833200   8.9215680  37.9786830  84.2427940   8.7811070
  37.2176270  85.4487950   8.2729410  45.8608300  83.4549090  10.3213800
  45.5405170  82.7358330  10.8659490  45.1866660  84.1304160  10.3949860
  49.0761900  73.6875250   5.6850600  49.4442720  72.8670460   6.0130170
  48.2160100  73.7477140   6.1006250  46.0363890  76.3414840   5.9088570
  46.5349140  76.8160660   6.5740420  46.1786840  75.4178360   6.1158600
  53.2430750  72.5582800   6.7516960  52.7404350  73.2988200   7.0910770
  54.0587410  72.9466800   6.4353750  53.5378340  84.9724830   1.8732580
  53.6625760  85.7956000   2.3456390  54.4043900  84.7615560   1.5256730
  40.0154150  86.2502110  10.7335290  40.8166880  86.5714160  11.1470690
  39.5005970  85.8897690  11.4555200  48.8518780  82.3581980  10.6810700
  48.2456940  82.3813580   9.9406450  48.5472890  81.6265020  11.2177950
  50.2819150  86.0862270   9.2920110  51.2340900  86.0020290   9.2420350
  50.1347370  86.7503980   9.9653900  37.7351960  78.7375570   9.6771340
  38.2390980  78.1582850  10.2487570  36.9959380  79.0215800  10.2147710
  44.7889900  80.1446560   9.2106860  44.0235570  80.7131560   9.1261530
  44.9705860  79.8522770   8.3175090  51.9313250  81.8751890   9.7681880
  52.6722720  82.2127650   9.2649340  51.1685930  82.0443950   9.2151650
  39.7675040  76.8805160  10.5721410  39.8080380  76.5819030  11.4806640
  40.6220540  77.2812770  10.4128930  41.7080850  75.4597260   8.5395900
  41.1777310  74.9688210   7.9119240  42.3768920  75.8881460   8.0053830
  50.6058910  79.9266720   8.3037090  51.0199930  80.0811800   9.1527510
  49.6709910  80.0521940   8.4662870  51.0781080  77.2662880  10.3076240
  51.6601850  76.5115200  10.2196720  51.2542850  77.7970320   9.5307720
  42.1953150  72.4259630   8.6193190  42.1010020  71.8080380   7.8944060
  41.6150540  73.1525920   8.3923100  44.9614590  70.9832870   5.6520580
  44.5131890  71.0057130   4.8066130  44.3279790  70.5851890   6.2490880
  45.3674140  79.8787200   6.2733020  45.7862250  80.7219930   6.1009260
  44.4482770  80.0159240   6.0439800  47.7038040  77.6103380   7.6570860
  47.8234250  77.0144520   8.3965700  48.5632040  77.6473070   7.2372160
  50.0425940  78.1640570   6.2333370  49.5161160  78.6883190   5.6298510
  50.3857280  78.7967960   6.8643100  43.2181560  86.1840210   7.3890750
  42.6802650  86.9086270   7.0699450  43.4715520  85.7070550   6.5988090
  44.4706810  74.1524730   8.9146680  45.0606500  73.8440580   9.6024500
  43.6527050  73.6804480   9.0706580  49.2900240  73.7690540   9.1479700
  48.6015760  73.1072080   9.0829690  50.0106260  73.3228810   9.5928160
  46.0743770  87.4191420   7.6477400  46.0002470  88.3226560   7.9549770
  45.1722610  87.1003320   7.6199470  37.9661270  85.6136600   3.6892650
  37.5292260  85.7937400   4.5216800  38.5338950  86.3711220   3.5474370
  53.6023450  85.1153600   7.9769960  53.0025440  85.1746160   7.2333880
  53.7317350  84.1758580   8.1066810  52.2875090  81.8405580   6.0746120
  51.4734930  82.2702740   6.3371910  52.6949290  82.4523990   5.4615170
  38.8361630  78.5109400   4.5884870  39.2034670  78.4236800   5.4680890
  38.2672450  77.7475950   4.4891730  53.6365490  76.9793780   7.6015340
  53.4051580  76.7506530   6.7013290  53.8970040  77.8993330   7.5560230
  38.3877630  75.4218490   8.4943290  37.4933680  75.3885250   8.8337000
  38.9275180  75.6205280   9.2594540  52.0753560  72.2050210  10.3795040
  52.9523740  72.2133610  10.7629040  52.0874400  71.4681050   9.7687390
  53.7006550  76.1419620   4.7902610  52.7509260  76.1083160   4.9047600
  53.8819560  77.0519730   4.5552380  38.8917340  69.6966820   2.8426510
  39.5393530  69.1464200   2.4021670  39.3119180  69.9509970   3.6642320
  52.7869680  69.8908180   6.1996150  53.4241900  70.5042320   6.5655340
  52.9344570  69.9268840   5.2545380  38.6449340  69.8522490   5.5851830
  38.2964160  70.3086310   6.3510010  38.3137040  68.9579620   5.6674260
  40.2513710  83.0242090   9.7505020  40.2083340  82.6535000  10.6319480
  40.3824720  83.9619660   9.8906840  43.9519740  84.5801680   5.3514740
  43.7111100  84.8476240   4.4645260  44.8922380  84.7507410   5.4065600
  46.1574160  71.0434370   9.1071250  46.0963050  71.6356200   9.8566660
  47.0974540  70.9360330   8.9621510  48.7948720  70.7004430   8.7463540
  49.4089130  71.0183720   8.0844620  49.3398280  70.2153020   9.3659400
  55.2123900  86.5996060   6.1525380  54.7182180  86.9964930   5.4352510
  54.6037190  85.9745270   6.5462660  39.3169980  69.3798690   8.8602600
  39.8652970  69.1986740   8.0968710  39.3825290  68.5892800   9.3958910
  40.0901740  85.9704340   6.8702800  39.4962060  85.8389040   7.6092840
  40.0825580  85.1342480   6.4044900  49.5356760  69.2636570   5.0732830
  48.6616600  69.5971680   4.8705760  49.4267510  68.7909750   5.8984700
  50.4428740  71.4707440   6.4574550  50.1142100  70.6559200   6.0776280
  51.3911040  71.4277250   6.3340240  52.8963350  87.2419480   3.4312120
  52.4366320  87.9935290   3.0570140  52.2675810  86.5225950   3.3726920
  39.7213970  83.3362720   5.8210840  38.9948030  82.7168010   5.7536790
  39.7823120  83.7303330   4.9508920  43.3259070  85.5507720   2.6060250
  43.8424090  84.9395080   2.0808510  43.9756450  86.0536500   3.0971260
  46.0654570  86.4416210   3.4329230  46.3532380  86.1870510   2.5562240
  46.5777790  85.8893570   4.0234800  47.2831580  70.1806410   4.0125740
  46.5003370  70.6551910   4.2922500  46.9894510  69.2761240   3.9038920
  46.1326930  87.3632310  10.7997430  47.0594240  87.1276580  10.8433390
  46.1177360  88.1904310  10.3183460  43.3190540  70.0277060  10.5639310
  43.0374810  70.5310660   9.8000130  43.7010240  69.2298810  10.1981440
  49.9206000  69.4430640  11.1419780  49.8071450  69.7625250  12.0371300
  50.7375740  69.8443150  10.8457060  52.7004490  86.5902170  10.6238470
  53.4929810  86.0951400  10.4164430  52.9937640  87.2692310  11.2314080
  48.8264150  58.6879620  56.6028480  48.7458200  57.7734230  56.3320190
  48.4128570  59.1846690  55.8968190  50.9789620  64.8718830  57.2636880
  50.5171150  64.1006070  57.5924050  51.7915170  64.8984900  57.7689330
  39.3839970  55.7380340  53.1455900  38.4956670  56.0796310  53.0435780
  39.6681160  55.5380660  52.2536730  47.2052930  67.1576840  56.8840870
  46.5864370  67.6134340  56.3135310  48.0604710  67.3128300  56.4830570
  41.5601360  54.3211840  54.1794280  41.6668110  55.2215570  54.4863040
  40.6493720  54.2729810  53.8888930  51.2120470  53.4436650  55.6505180
  52.0330090  52.9533220  55.6930660  51.2454550  54.0334310  56.4037020
  48.0716280  62.0416080  54.2772780  47.4533550  62.5065530  53.7135500
  48.5839530  62.7343560  54.6942290  37.4399480  62.7272610  51.6512410
  37.0627460  63.2159710  50.9197310  37.6972550  63.3997890  52.2818940
  45.0488410  51.1289000  57.1097920  45.3563390  50.5735890  56.3933420
  44.1189110  51.2633460  56.9270910  51.8948890  63.5672510  54.4895550
  51.7845220  62.6246840  54.6144970  51.8917140  63.9288150  55.3758310
  47.4369170  59.1937830  53.8458040  46.5098450  59.1275210  54.0746510
  47.5893990  60.1317960  53.7313280  47.4238250  55.4654830  50.8425200
  46.4841920  55.6268790  50.9277660  47.7421510  56.1840510  50.2961190
  51.4666460  60.7558130  54.3493290  50.8478880  60.4177680  53.7019590
  51.4490910  60.1117890  55.0572480  43.0425810  59.7202570  56.6277770
  42.6382810  59.0079820  56.1323670  43.1288930  59.3755810  57.5165810
  49.6431160  59.9944940  51.3566040  50.0824440  59.1567370  51.2103860
  50.3559580  60.6274340  51.4430180  47.7526540  64.9341010  55.3247280
  48.1922450  65.6765340  54.9102670  47.6913430  65.1767580  56.2486240
  53.2248300  51.2487750  49.6707080  52.9120960  51.3414580  50.5706150
  53.9860770  51.8268780  49.6204510  39.7430440  58.6147550  54.1284420
  39.6228040  59.3409640  53.5165690  39.4331330  57.8450460  53.6512330
  38.6263440  63.4862880  56.3459240  38.2191520  63.6277470  55.4912840
  39.5176450  63.2023040  56.1430450  50.4196720  67.9210130  52.6810290
  50.2597860  67.6313070  53.5792120  50.2543430  67.1450260  52.1455520
  42.8985100  67.7008660  54.4581910  42.7227580  66.7844200  54.2449710
  42.0440840  68.0595950  54.6979710  50.1222850  65.4297690  51.2408290
  49.4288010  65.4274980  50.5810570  50.8645710  65.0057010  50.8102460
  49.6872780  67.0560400  55.3156780  50.1429730  66.2749780  55.6295400
  50.0265300  67.7667220  55.8597960  42.2094100  51.9582620  57.5108090
  41.7662250  52.7392160  57.1792610  42.7679090  52.2812510  58.2179030
  45.3252920  51.5793320  52.3913920  44.7007100  51.5753190  53.1167230
  45.2383040  50.7124280  51.9949890  42.0008320  57.0816190  55.2389340
  41.7749240  56.8653360  56.1435960  41.2200850  57.5144650  54.8935310
  49.2306080  57.0879560  53.8379990  48.6314970  57.8115360  53.6543610
  49.7785690  57.0256340  53.0556440  47.8370950  55.7243100  55.8683270
  48.2300520  56.0415300  55.0551960  48.1987800  54.8454980  55.9827790
  37.0605350  56.2564020  49.3016190  36.9780020  57.1994780  49.4431180
  36.7088410  56.1138930  48.4228540  44.8603480  54.9903050  58.3686540
  44.8639540  54.5493000  57.5191080  45.7554600  55.3120380  58.4758360
  40.7105860  54.8729540  57.3280750  40.3705910  55.3504770  58.0847800
  39.9483180  54.4194660  56.9681850  44.9223630  55.9915130  51.3593300
  45.0436450  55.9501610  52.3079120  44.5372140  56.8539280  51.2040030
  43.9345130  58.3016270  50.7576600  43.3662030  57.8534520  50.1312510
  44.6434130  58.6609050  50.2241750  38.0251940  53.7948520  56.2445420
  37.7398860  53.4304190  57.0824040  37.9630800  53.0628980  55.6308560
  41.4792610  62.2974460  53.0303010  40.7054870  61.7572080  52.8701730
  42.2087240  61.7781070  52.6920770  47.6990530  52.6877780  52.9658790
  46.8855140  52.1890950  52.8904100  47.5052480  53.5276030  52.5495140
  50.4138920  57.0597430  51.2620950  51.3018540  57.3714660  51.0872290
  50.3844010  56.1869680  50.8701530  41.5230010  61.9654840  56.6681820
  42.0408680  61.1623100  56.6138710  41.0714030  61.9033980  57.5098650
  46.4099510  63.2321120  51.9409120  46.7515210  63.9763350  51.4452440
  45.5812220  63.5452240  52.3033950  52.6853190  58.3709270  50.7300810
  52.6016910  58.8023490  49.8797250  53.4047380  58.8307620  51.1627630
  53.7140440  65.2251530  53.4582940  53.0716600  64.5707150  53.7326660
  53.3271100  65.6306620  52.6823610  49.2926920  62.5536960  57.3054630
  49.6450740  61.9565090  56.6456000  48.4089250  62.2281190  57.4762880
  45.3790200  63.3134650  54.7125040  46.0661330  63.8603860  55.0932630
  44.5922620  63.8575380  54.7474650  37.5182600  58.9307470  50.2042120
  38.3877450  59.2132270  50.4878040  37.0272920  59.7443340  50.0890930
  44.6817410  60.3180680  54.3250400  45.1380190  61.1285930  54.5510590
  44.3305620  60.0003820  55.1568890  40.5829190  50.6618330  54.7972920
  40.4543820  50.6536230  55.7457840  39.7591210  51.0001420  54.4463930
  52.1037820  64.1167990  49.9959290  51.8775400  63.3998430  50.5883930
  51.7134020  63.8680430  49.1581040  37.8853850  68.1434850  50.7703750
  38.2451490  68.7424190  50.1161020  37.7446190  68.6894740  51.5438780
  51.6854070  62.0339930  51.6573450  51.3975770  62.4952620  52.4451330
  52.4806240  61.5737700  51.9257670  43.9022470  65.5266050  51.5877420
  43.8932570  66.2595740  50.9721930  42.9820830  65.2797630  51.6804380
  39.5029110  60.7480940  52.3324180  38.8957060  61.4879840  52.3419480
  39.9778460  60.8380300  51.5062380  52.4423930  53.8688700  52.8168630
  51.8137090  53.9734370  52.1026860  51.9475850  54.0885480  53.6062510
  46.8882070  65.5894290  50.2502610  46.9894050  65.3858280  49.3204590
  45.9883810  65.3352570  50.4550390  44.4107960  56.1474650  54.2326510
  43.7024110  56.6160990  54.6740120  44.6952440  55.4896660  54.8671700
  48.4423390  52.8725310  55.6722300  48.3191170  52.8911440  54.7231810
  49.3907950  52.9204250  55.7920700  45.5300180  68.1080610  54.9450280
  45.7841680  68.0702000  54.0229650  44.5812660  67.9813940  54.9378530
  42.6142980  54.4559730  51.6077220  43.4633510  54.8929880  51.5417410
  42.2474250  54.7679990  52.4349280  51.5352760  59.0272490  56.5208790
  50.5942900  59.0422720  56.6956480  51.8496830  58.2408450  56.9669090
  41.5134400  60.7092090  50.0812750  42.2797670  60.5973450  50.6438180
  41.5909090  60.0130060  49.4289520  40.2081160  58.1417160  50.7645640
  40.2884750  57.1944670  50.8763040  41.1000910  58.4724040  50.8706300
  41.0095870  68.2912550  57.8680180  41.7458350  67.7428010  58.1388750
  41.3936790  69.1568560  57.7286170  37.8941350  64.3586120  53.7421690
  36.9681130  64.6007260  53.7327100  38.3597780  65.1860380  53.6206440
  44.1198180  67.4642860  49.6905750  44.9126790  67.7531690  49.2387540
  43.6002530  67.0335030  49.0118230  53.1728350  66.6912990  51.1142490
  52.8869860  66.2778130  50.2996670  52.9747900  67.6200700  50.9943010
  44.6375580  62.6846270  49.5548100  44.5326220  62.0698620  50.2809480
  44.4699800  62.1612160  48.7711110  47.8778310  61.7466300  50.1590090
  47.3288410  62.1935600  50.8032830  48.4997570  61.2415550  50.6827760
  43.5453430  60.7057220  52.0555390  43.9669850  60.5397090  52.8986780
  43.6704270  59.8957450  51.5610530  46.0581070  59.7294830  49.3032490
  46.5786730  59.0143850  48.9373640  46.7049470  60.3680700  49.6033000
  42.4412330  56.7790450  49.0013550  42.2401390  55.9157810  49.3626890
  42.2704380  56.6923810  48.0635150  49.9200640  51.5898680  51.5300430
  50.2002930  50.7466580  51.8859850  49.1466370  51.8221790  52.0439180
  41.2395130  53.8791070  48.9891430  41.5421030  53.8858500  48.0810580
  41.9789720  53.5288930  49.4859090  44.4580060  52.8225690  49.9747630
  44.1102060  52.1449680  49.3950080  44.6592830  52.3615200  50.7891020
  46.6229100  67.8106440  51.5934230  47.5179890  68.1491410  51.6152990
  46.6546730  67.0885850  50.9658510  40.2625260  63.1833490  49.8221230
  40.7000130  63.7263160  50.4778810  40.7472990  62.3580440  49.8317570
  37.4771060  65.9722520  57.2741490  37.8074070  65.1043580  57.0420130
  37.9062060  66.1781040  58.1046450  42.0732980  64.3031530  54.9343460
  41.7728520  64.1796500  55.8347370  41.9670470  63.4440120  54.5259190
  54.8424900  64.0827930  49.6370140  54.0117860  64.1504580  50.1077370
  55.0196730  64.9732050  49.3337000  54.2981360  60.8275410  52.1404340
  55.0600270  61.3972060  52.2464030  54.3135730  60.2602610  52.9112650
  37.7985700  59.3513340  56.3712000  37.1434540  59.0824980  55.7271700
  38.6363650  59.2417820  55.9213980  55.3041330  61.6825510  56.9846270
  55.6750160  60.8992830  56.5782240  55.9443260  62.3714610  56.8063570
  54.3500530  61.1209780  49.2976860  54.6249370  62.0288660  49.1696080
  54.1611270  61.0572310  50.2338850  50.7476140  54.1454630  50.5930490
  51.1661020  53.9585610  49.7527150  50.4412200  53.2933680  50.9033420
  54.2465870  59.0578770  54.2906290  53.8709470  58.2906700  53.8587580
  53.5168990  59.4401470  54.7781220  37.0123780  56.5612270  52.3137330
  36.1087860  56.8242470  52.1388990  37.4964400  56.8323440  51.5337290
  53.5216830  57.2836260  57.5913530  54.0454310  56.7898910  56.9603700
  54.1076250  57.4186620  58.3361100  39.5550990  55.6177810  50.2231710
  40.2642690  55.1961030  49.7378990  38.8390930  55.6853040  49.5915060
  39.2025150  51.6717140  49.2634360  39.9253280  52.2126080  49.5815580
  39.4749670  51.3980560  48.3875900  53.0116800  56.5409610  53.5305940
  53.5075920  56.3080480  54.3154820  52.8132870  55.7021450  53.1143580
  54.4403960  55.1770560  56.0643620  54.3303240  55.0226600  57.0025890
  55.2011550  54.6491500  55.8219030  55.3294230  53.0078480  49.3049760
  56.2543540  52.8759660  49.0968050  55.3070020  53.0871300  50.2586210
  55.4032720  53.7789140  51.9306470  54.6084220  53.7134260  52.4599380
  55.6076000  54.7139780  51.9191820  52.3451140  67.8180690  55.9244860
  52.9410210  67.4965260  55.2479280  52.6029290  67.3452510  56.7158130
  51.8352650  52.1086020  58.3805300  52.2760740  52.0531120  57.5326900
  51.5660240  53.0244030  58.4515480  53.6991220  51.7401260  56.3914120
  53.6379620  50.7962480  56.2445140  54.4783250  51.8481350  56.9367580
  38.0043970  67.8793620  55.3538070  37.8366010  67.2464300  56.0519960
  37.1378480  68.0853020  55.0032260  38.6271990  51.7110400  52.8569930
  39.3851350  51.8239280  52.2833960  38.1649160  52.5479600  52.8113360
  45.1685800  53.8249670  55.8472240  44.3560310  53.4506560  55.5068120
  45.6727440  53.0694750  56.1493430  49.6710780  50.4892120  57.0855310
  50.2740150  51.0612330  57.5603830  48.9303770  51.0531560  56.8629210
  52.8145380  50.8913680  52.3595590  53.0096010  51.7897130  52.6263020
  52.0275250  50.6600760  52.8528540  39.6106670  66.5726850  52.7988210
  39.0854290  66.9534880  52.0950170  39.5351250  67.1977620  53.5197920
  40.9997140  52.2374450  51.3971900  41.5289900  51.4504250  51.2679850
  41.6325460  52.9165640  51.6307430  43.1934980  51.9749590  54.4517290
  42.5637720  51.2736900  54.6187420  42.6540120  52.7353720  54.2350450
  54.3671990  68.1314390  54.1202150  54.5424180  67.4452130  53.4763070
  53.6693560  68.6561440  53.7278820  42.2099640  68.5209230  51.6737460
  42.9418460  68.2368510  51.1261350  42.4693310  68.2822510  52.5636840
  41.3714430  64.6373960  51.6783790  40.7423310  65.1059060  52.2269620
  41.4862260  63.7923180  52.1129980  48.8264150  58.6879620  37.8284990
  48.7458200  57.7734230  37.5576700  48.4128570  59.1846690  37.1224700
  46.9582190  60.4658640  39.7094260  46.1824290  59.9859080  39.9992830
  47.6095120  59.7864290  39.5350420  40.9748020  60.7778450  40.5870020
  40.1432900  60.5227160  40.9866530  41.5829000  60.8489220  41.3227940
  50.9789620  64.8718830  38.4893390  50.5171150  64.1006070  38.8180560
  51.7915170  64.8984900  38.9945840  40.9549280  64.8118540  40.7828040
  41.2577320  63.9216280  40.6038260  41.6992870  65.3688760  40.5550290
  37.3472980  58.3385990  40.2552110  37.9189090  57.5708190  40.2555750
  37.3474520  58.6374750  39.3458720  47.2052930  67.1576840  38.1097380
  46.5864370  67.6134340  37.5391820  48.0604710  67.3128300  37.7087080
  46.3991180  63.1415830  39.7164420  46.3299460  62.2005770  39.5553550
  47.1611040  63.2317240  40.2886990  38.5897850  53.7470350  42.0421040
  38.4100690  52.8496100  42.3223800  38.1877930  54.2942220  42.7167990
  47.4296350  55.9486210  39.9433350  47.8061170  55.0758090  39.8307020
  47.3315860  56.2844910  39.0523790  51.2120470  53.4436650  36.8761690
  52.0330090  52.9533220  36.9187170  51.2454550  54.0334310  37.6293530
  39.2084520  56.2430850  40.6503380  39.8894630  56.5069220  41.2690780
  38.8932570  55.4031720  40.9841390  43.4009090  57.2898210  39.7375970
  43.9087310  57.7879180  40.3780990  43.9322330  56.5133410  39.5615330
  55.5020020  55.4603400  43.4405320  54.7972190  55.8485110  42.9220430
  55.7677940  56.1553690  44.0426250  41.6845190  51.9296770  44.0039390
  41.6863630  52.4469160  43.1985290  40.8549500  51.4526950  43.9809320
  42.9348040  61.5691950  42.1812890  42.6017420  62.1960870  42.8233960
  43.1114720  62.0953830  41.4014560  51.4481950  55.3837030  39.6489230
  50.7437520  55.6721920  40.2292340  51.8094110  56.1937140  39.2888790
  41.3660520  53.6406730  42.0109840  41.7077330  54.4848780  41.7163710
  40.4276330  53.7890470  42.1275180  42.1467140  63.5372750  43.9962070
  42.7641140  64.2123830  43.7146520  41.2860260  63.9460730  43.9049570
  53.0644730  65.0012160  41.9116710  52.3808250  65.6711270  41.9033380
  53.6039020  65.1992810  41.1461570  54.5168870  54.8291820  40.0398440
  53.5693780  54.8630800  40.1713870  54.8418860  55.6430770  40.4247800
  45.0488410  51.1289000  38.3354430  45.3563390  50.5735890  37.6189930
  44.1189110  51.2633460  38.1527420  50.6003470  66.8456290  40.6261890
  50.6130630  66.4418580  39.7584150  50.0478690  67.6203580  40.5223320
  49.9988910  61.7486130  41.9544500  50.4157700  61.5346240  41.1197960
  50.7228730  62.0058920  42.5253120  53.9451010  60.1473350  42.0460740
  53.1169640  60.2166440  41.5710870  54.5401490  60.7327660  41.5776570
  50.9093020  56.9342670  42.9915610  50.4964200  57.7596380  43.2455600
  50.1768970  56.3487710  42.7991970  43.0425810  59.7202570  37.8534280
  42.6382810  59.0079820  37.3580180  43.1288930  59.3755810  38.7422320
  43.5107510  63.4070130  40.0173490  43.2135800  62.8015600  39.3381270
  44.4607330  63.4447440  39.9062850  41.7554430  56.4945780  41.6333320
  42.3069020  56.6041120  40.8586570  42.2697940  56.8683380  42.3488550
  51.5993120  66.9802000  43.6796590  51.1223680  67.7874190  43.4869200
  50.9154910  66.3280330  43.8322800  42.6025940  63.1451820  46.6681290
  41.7054470  63.3691790  46.9154690  42.6278810  63.2686760  45.7192690
  41.4297160  60.0165140  45.2438660  41.2904930  60.8887940  45.6126060
  40.5478520  59.6737950  45.0986600  47.7526540  64.9341010  36.5503790
  48.1922450  65.6765340  36.1359180  47.6913430  65.1767580  37.4742750
  43.2277510  65.9586840  47.4523810  43.1992940  66.3629790  46.5852240
  43.0642480  65.0297200  47.2895410  53.2248300  51.2487750  30.8963590
  52.9120960  51.3414580  31.7962660  53.9860770  51.8268780  30.8461020
  55.1792330  66.7413940  48.7487980  55.6552050  67.2196830  49.4277060
  55.7999490  66.6731430  48.0233480  37.3815810  61.7862690  41.1609570
  37.4596230  61.9211460  40.2165290  37.9957490  61.0778580  41.3537690
  38.6263440  63.4862880  37.5715750  38.2191520  63.6277470  36.7169350
  39.5176450  63.2023040  37.3686960  54.5825580  63.9326790  45.9087990
  54.7088640  63.6938670  44.9905170  54.6246960  63.1011330  46.3810070
  48.4442320  67.6354790  44.4782800  48.9586990  67.5462800  45.2805230
  47.6011400  67.9814490  44.7710710  42.8985100  67.7008660  35.6838420
  42.7227580  66.7844200  35.4706220  42.0440840  68.0595950  35.9236220
  54.4349590  55.9859250  46.8737730  53.8193860  56.4938920  46.3453190
  54.1146010  55.0857580  46.8163670  37.4375330  62.8276860  43.7004030
  37.6006370  62.3582220  42.8823400  37.9027780  62.3200420  44.3652870
  42.2094100  51.9582620  38.7364600  41.7662250  52.7392160  38.4049120
  42.7679090  52.2812510  39.4435540  46.4963910  54.8251140  44.3399920
  46.0343280  55.0334160  45.1519860  46.0942020  54.0110490  44.0370590
  51.4968420  56.0460090  45.4696580  50.6462010  55.7465840  45.7905650
  51.3370210  56.2902100  44.5580400  48.5918130  57.5461840  47.5695370
  48.9171540  56.7125590  47.2297600  49.3798460  58.0690360  47.7173700
  44.2470000  52.5029950  40.5954200  44.5442330  53.4092780  40.5146220
  44.7955560  52.0148730  39.9813770  42.0008320  57.0816190  36.4645850
  41.7749240  56.8653360  37.3692470  41.2200850  57.5144650  36.1191820
  44.4407530  57.9801770  47.1306120  44.3451130  57.0396500  46.9806520
  45.2839510  58.2016840  46.7354190  47.8370950  55.7243100  37.0939780
  48.2300520  56.0415300  36.2808470  48.1987800  54.8454980  37.2084300
  39.5718070  54.3915440  45.2839900  39.1781460  55.2390650  45.4912680
  38.8836470  53.7541810  45.4748540  46.1463120  54.4750410  48.3536640
  45.4561440  54.2822610  48.9882730  46.8895420  54.7585050  48.8860940
  36.8735120  52.3143900  39.3169980  36.5848170  52.8846760  40.0294960
  37.6180880  51.8348350  39.6801210  48.4226090  58.3148850  41.1890560
  47.6907210  58.8235660  41.5380660  48.0250430  57.4978830  40.8879340
  44.8603480  54.9903050  39.5943050  44.8639540  54.5493000  38.7447590
  45.7554600  55.3120380  39.7014870  40.7105860  54.8729540  38.5537260
  40.3705910  55.3504770  39.3104310  39.9483180  54.4194660  38.1938360
  48.8852000  53.7682530  40.6013500  48.9024740  54.2191180  41.4455350
  48.6367580  52.8688170  40.8146940  52.3122750  51.1814710  46.4399880
  52.6368520  50.4504370  46.9657860  52.3479260  50.8628350  45.5380870
  39.0114310  62.2028290  45.8599840  38.6269100  61.5621960  46.4582800
  39.3226500  62.9064410  46.4294570  45.1611450  59.0504830  41.3408460
  45.5281580  58.5763400  42.0869800  44.9716510  59.9246400  41.6816800
  38.0251940  53.7948520  37.4701930  37.7398860  53.4304190  38.3080550
  37.9630800  53.0628980  36.8565070  42.9510820  58.0913470  43.6592670
  42.6467890  58.9705450  43.8843030  43.9057280  58.1513260  43.6950110
  52.2380590  61.2939820  40.0485910  52.9579710  61.7895110  39.6582020
  52.0362410  60.6157710  39.4039780  47.6199390  61.3648880  45.9354910
  47.5536700  60.4444550  45.6812500  46.9904530  61.4624320  46.6499550
  41.5230010  61.9654840  37.8938330  42.0408680  61.1623100  37.8395220
  41.0714030  61.9033980  38.7355160  39.0074550  58.9316210  44.8064030
  38.6489490  59.5970060  45.3937370  38.7129110  58.0999760  45.1776650
  42.2087670  59.3900450  47.6903580  41.9087810  59.5357630  46.7931400
  42.9798910  58.8305740  47.5976970  47.5516120  64.1869450  45.6858710
  47.5660660  63.2550410  45.4677620  46.8441220  64.2729210  46.3248480
  53.7627330  60.8276790  45.0327290  53.0375520  61.4205570  44.8356680
  54.2902790  60.8200330  44.2340660  49.2926920  62.5536960  38.5311140
  49.6450740  61.9565090  37.8712510  48.4089250  62.2281190  38.7019390
  45.3790200  63.3134650  35.9381550  46.0661330  63.8603860  36.3189140
  44.5922620  63.8575380  35.9731160  46.9850020  65.8287020  42.7799210
  47.6292240  66.0346400  43.4572630  47.3479460  65.0675420  42.3270060
  40.5829190  50.6618330  36.0229430  40.4543820  50.6536230  36.9714350
  39.7591210  51.0001420  35.6720440  48.2582100  63.8319370  41.4976660
  48.9004330  63.1312530  41.6108830  48.7831450  64.6117810  41.3173550
  50.0319720  64.6314270  44.7012720  50.3675960  65.2180960  45.3790640
  49.1120060  64.5006980  44.9310510  37.5823120  52.4209450  45.4836130
  36.8681640  52.6206370  46.0888740  38.0018160  51.6449020  45.8550930
  37.8695710  66.4089710  46.4702660  37.9786830  65.4684450  46.3298050
  37.2176270  66.6744460  45.8216390  45.8608300  64.6805600  47.8700780
  45.5405170  63.9614840  48.4146470  45.1866660  65.3560670  47.9436840
  49.0761900  54.9131760  43.2337580  49.4442720  54.0926970  43.5617150
  48.2160100  54.9733650  43.6493230  52.4423930  53.8688700  34.0425140
  51.8137090  53.9734370  33.3283370  51.9475850  54.0885480  34.8319020
  46.0363890  57.5671350  43.4575550  46.5349140  58.0417170  44.1227400
  46.1786840  56.6434870  43.6645580  48.4423390  52.8725310  36.8978810
  48.3191170  52.8911440  35.9488320  49.3907950  52.9204250  37.0177210
  45.5300180  68.1080610  36.1706790  45.7841680  68.0702000  35.2486160
  44.5812660  67.9813940  36.1635040  53.2430750  53.7839310  44.3003940
  52.7404350  54.5244710  44.6397750  54.0587410  54.1723310  43.9840730
  51.5352760  59.0272490  37.7465300  50.5942900  59.0422720  37.9212990
  51.8496830  58.2408450  38.1925600  53.5378340  66.1981340  39.4219560
  53.6625760  67.0212510  39.8943370  54.4043900  65.9872070  39.0743710
  41.0095870  68.2912550  39.0936690  41.7458350  67.7428010  39.3645260
  41.3936790  69.1568560  38.9542680  40.0154150  67.4758620  48.2822270
  40.8166880  67.7970670  48.6957670  39.5005970  67.1154200  49.0042180
  48.8518780  63.5838490  48.2297680  48.2456940  63.6070090  47.4893430
  48.5472890  62.8521530  48.7664930  50.2819150  67.3118780  46.8407090
  51.2340900  67.2276800  46.7907330  50.1347370  67.9760490  47.5140880
  37.7351960  59.9632080  47.2258320  38.2390980  59.3839360  47.7974550
  36.9959380  60.2472310  47.7634690  44.7889900  61.3703070  46.7593840
  44.0235570  61.9388070  46.6748510  44.9705860  61.0779280  45.8662070
  51.9313250  63.1008400  47.3168860  52.6722720  63.4384160  46.8136320
  51.1685930  63.2700460  46.7638630  39.7675040  58.1061670  48.1208390
  39.8080380  57.8075540  49.0293620  40.6220540  58.5069280  47.9615910
  41.7080850  56.6853770  46.0882880  41.1777310  56.1944720  45.4606220
  42.3768920  57.1137970  45.5540810  50.6058910  61.1523230  45.8524070
  51.0199930  61.3068310  46.7014490  49.6709910  61.2778450  46.0149850
  51.0781080  58.4919390  47.8563220  51.6601850  57.7371710  47.7683700
  51.2542850  59.0226830  47.0794700  42.1953150  53.6516140  46.1680170
  42.1010020  53.0336890  45.4431040  41.6150540  54.3782430  45.9410080
  44.9614590  52.2089380  43.2007560  44.5131890  52.2313640  42.3553110
  44.3279790  51.8108400  43.7977860  45.3674140  61.1043710  43.8220000
  45.7862250  61.9476440  43.6496240  44.4482770  61.2415750  43.5926780
  47.7038040  58.8359890  45.2057840  47.8234250  58.2401030  45.9452680
  48.5632040  58.8729580  44.7859140  50.0425940  59.3897080  43.7820350
  49.5161160  59.9139700  43.1785490  50.3857280  60.0224470  44.4130080
  43.2181560  67.4096720  44.9377730  42.6802650  68.1342780  44.6186430
  43.4715520  66.9327060  44.1475070  44.4706810  55.3781240  46.4633660
  45.0606500  55.0697090  47.1511480  43.6527050  54.9060990  46.6193560
  49.2900240  54.9947050  46.6966680  48.6015760  54.3328590  46.6316670
  50.0106260  54.5485320  47.1415140  46.0743770  68.6447930  45.1964380
  46.0002470  69.5483070  45.5036750  45.1722610  68.3259830  45.1686450
  37.4771060  65.9722520  38.4998000  37.8074070  65.1043580  38.2676640
  37.9062060  66.1781040  39.3302960  42.0732980  64.3031530  36.1599970
  41.7728520  64.1796500  37.0603880  41.9670470  63.4440120  35.7515700
  37.9661270  66.8393110  41.2379630  37.5292260  67.0193910  42.0703780
  38.5338950  67.5967730  41.0961350  53.6023450  66.3410110  45.5256940
  53.0025440  66.4002670  44.7820860  53.7317350  65.4015090  45.6553790
  37.7985700  59.3513340  37.5968510  37.1434540  59.0824980  36.9528210
  38.6363650  59.2417820  37.1470490  55.3041330  61.6825510  38.2102780
  55.6750160  60.8992830  37.8038750  55.9443260  62.3714610  38.0320080
  52.2875090  63.0662090  43.6233100  51.4734930  63.4959250  43.8858890
  52.6949290  63.6780500  43.0102150  54.2465870  59.0578770  35.5162800
  53.8709470  58.2906700  35.0844090  53.5168990  59.4401470  36.0037730
  38.8361630  59.7365910  42.1371850  39.2034670  59.6493310  43.0167870
  38.2672450  58.9732460  42.0378710  53.6365490  58.2050290  45.1502320
  53.4051580  57.9763040  44.2500270  53.8970040  59.1249840  45.1047210
  38.3877630  56.6475000  46.0430270  37.4933680  56.6141760  46.3823980
  38.9275180  56.8461790  46.8081520  52.0753560  53.4306720  47.9282020
  52.9523740  53.4390120  48.3116020  52.0874400  52.6937560  47.3174370
  53.5216830  57.2836260  38.8170040  54.0454310  56.7898910  38.1860210
  54.1076250  57.4186620  39.5617610  53.7006550  57.3676130  42.3389590
  52.7509260  57.3339670  42.4534580  53.8819560  58.2776240  42.1039360
  53.0116800  56.5409610  34.7562450  53.5075920  56.3080480  35.5411330
  52.8132870  55.7021450  34.3400090  38.8917340  50.9223330  40.3913490
  39.5393530  50.3720710  39.9508650  39.3119180  51.1766480  41.2129300
  54.4403960  55.1770560  37.2900130  54.3303240  55.0226600  38.2282400
  55.2011550  54.6491500  37.0475540  52.7869680  51.1164690  43.7483130
  53.4241900  51.7298830  44.1142320  52.9344570  51.1525350  42.8032360
  55.3294230  53.0078480  30.5306270  56.2543540  52.8759660  30.3224560
  55.3070020  53.0871300  31.4842720  55.4032720  53.7789140  33.1562980
  54.6084220  53.7134260  33.6855890  55.6076000  54.7139780  33.1448330
  38.6449340  51.0779000  43.1338810  38.2964160  51.5342820  43.8996990
  38.3137040  50.1836130  43.2161240  40.2513710  64.2498600  47.2992000
  40.2083340  63.8791510  48.1806460  40.3824720  65.1876170  47.4393820
  43.9519740  65.8058190  42.9001720  43.7111100  66.0732750  42.0132240
  44.8922380  65.9763920  42.9552580  46.1574160  52.2690880  46.6558230
  46.0963050  52.8612710  47.4053640  47.0974540  52.1616840  46.5108490
  48.7948720  51.9260940  46.2950520  49.4089130  52.2440230  45.6331600
  49.3398280  51.4409530  46.9146380  55.2123900  67.8252570  43.7012360
  54.7182180  68.2221440  42.9839490  54.6037190  67.2001780  44.0949640
  39.3169980  50.6055200  46.4089580  39.8652970  50.4243250  45.6455690
  39.3825290  49.8149310  46.9445890  40.0901740  67.1960850  44.4189780
  39.4962060  67.0645550  45.1579820  40.0825580  66.3598990  43.9531880
  49.5356760  50.4893080  42.6219810  48.6616600  50.8228190  42.4192740
  49.4267510  50.0166260  43.4471680  50.4428740  52.6963950  44.0061530
  50.1142100  51.8815710  43.6263260  51.3911040  52.6533760  43.8827220
  52.8963350  68.4675990  40.9799100  52.4366320  69.2191800  40.6057120
  52.2675810  67.7482460  40.9213900  39.7213970  64.5619230  43.3697820
  38.9948030  63.9424520  43.3023770  39.7823120  64.9559840  42.4995900
  43.3259070  66.7764230  40.1547230  43.8424090  66.1651590  39.6295490
  43.9756450  67.2793010  40.6458240  46.0654570  67.6672720  40.9816210
  46.3532380  67.4127020  40.1049220  46.5777790  67.1150080  41.5721780
  47.2831580  51.4062920  41.5612720  46.5003370  51.8808420  41.8409480
  46.9894510  50.5017750  41.4525900  51.8352650  52.1086020  39.6061810
  52.2760740  52.0531120  38.7583410  51.5660240  53.0244030  39.6771990
  53.6991220  51.7401260  37.6170630  53.6379620  50.7962480  37.4701650
  54.4783250  51.8481350  38.1624090  38.0043970  67.8793620  36.5794580
  37.8366010  67.2464300  37.2776470  37.1378480  68.0853020  36.2288770
  45.1685800  53.8249670  37.0728750  44.3560310  53.4506560  36.7324630
  45.6727440  53.0694750  37.3749940  49.6710780  50.4892120  38.3111820
  50.2740150  51.0612330  38.7860340  48.9303770  51.0531560  38.0885720
  46.1326930  68.5888820  48.3484410  47.0594240  68.3533090  48.3920370
  46.1177360  69.4160820  47.8670440  43.3190540  51.2533570  48.1126290
  43.0374810  51.7567170  47.3487110  43.7010240  50.4555320  47.7468420
  49.9206000  50.6687150  48.6906760  49.8071450  50.9881760  49.5858280
  50.7375740  51.0699660  48.3944040  52.7004490  67.8158680  48.1725450
  53.4929810  67.3207910  47.9651410  52.9937640  68.4948820  48.7801060
  48.8264150  58.6879620  19.0541500  48.7458200  57.7734230  18.7833210
  48.4128570  59.1846690  18.3481210  46.9582190  60.4658640  20.9350770
  46.1824290  59.9859080  21.2249340  47.6095120  59.7864290  20.7606930
  40.9748020  60.7778450  21.8126530  40.1432900  60.5227160  22.2123040
  41.5829000  60.8489220  22.5484450  50.9789620  64.8718830  19.7149900
  50.5171150  64.1006070  20.0437070  51.7915170  64.8984900  20.2202350
  40.9549280  64.8118540  22.0084550  41.2577320  63.9216280  21.8294770
  41.6992870  65.3688760  21.7806800  39.3839970  55.7380340  15.5968920
  38.4956670  56.0796310  15.4948800  39.6681160  55.5380660  14.7049750
  37.3472980  58.3385990  21.4808620  37.9189090  57.5708190  21.4812260
  37.3474520  58.6374750  20.5715230  47.2052930  67.1576840  19.3353890
  46.5864370  67.6134340  18.7648330  48.0604710  67.3128300  18.9343590
  46.3991180  63.1415830  20.9420930  46.3299460  62.2005770  20.7810060
  47.1611040  63.2317240  21.5143500  47.4296350  55.9486210  21.1689860
  47.8061170  55.0758090  21.0563530  47.3315860  56.2844910  20.2780300
  41.5601360  54.3211840  16.6307300  41.6668110  55.2215570  16.9376060
  40.6493720  54.2729810  16.3401950  51.2120470  53.4436650  18.1018200
  52.0330090  52.9533220  18.1443680  51.2454550  54.0334310  18.8550040
  39.2084520  56.2430850  21.8759890  39.8894630  56.5069220  22.4947290
  38.8932570  55.4031720  22.2097900  43.4009090  57.2898210  20.9632480
  43.9087310  57.7879180  21.6037500  43.9322330  56.5133410  20.7871840
  55.5020020  55.4603400  24.6661830  54.7972190  55.8485110  24.1476940
  55.7677940  56.1553690  25.2682760  48.0716280  62.0416080  16.7285800
  47.4533550  62.5065530  16.1648520  48.5839530  62.7343560  17.1455310
  51.4481950  55.3837030  20.8745740  50.7437520  55.6721920  21.4548850
  51.8094110  56.1937140  20.5145300  37.4399480  62.7272610  14.1025430
  37.0627460  63.2159710  13.3710330  37.6972550  63.3997890  14.7331960
  54.5168870  54.8291820  21.2654950  53.5693780  54.8630800  21.3970380
  54.8418860  55.6430770  21.6504310  45.0488410  51.1289000  19.5610940
  45.3563390  50.5735890  18.8446440  44.1189110  51.2633460  19.3783930
  50.6003470  66.8456290  21.8518400  50.6130630  66.4418580  20.9840660
  50.0478690  67.6203580  21.7479830  51.8948890  63.5672510  16.9408570
  51.7845220  62.6246840  17.0657990  51.8917140  63.9288150  17.8271330
  49.9988910  61.7486130  23.1801010  50.4157700  61.5346240  22.3454470
  50.7228730  62.0058920  23.7509630  47.4369170  59.1937830  16.2971060
  46.5098450  59.1275210  16.5259530  47.5893990  60.1317960  16.1826300
  47.4238250  55.4654830  13.2938220  46.4841920  55.6268790  13.3790680
  47.7421510  56.1840510  12.7474210  53.9451010  60.1473350  23.2717250
  53.1169640  60.2166440  22.7967380  54.5401490  60.7327660  22.8033080
  51.4666460  60.7558130  16.8006310  50.8478880  60.4177680  16.1532610
  51.4490910  60.1117890  17.5085500  43.0425810  59.7202570  19.0790790
  42.6382810  59.0079820  18.5836690  43.1288930  59.3755810  19.9678830
  43.5107510  63.4070130  21.2430000  43.2135800  62.8015600  20.5637780
  44.4607330  63.4447440  21.1319360  41.7554430  56.4945780  22.8589830
  42.3069020  56.6041120  22.0843080  42.2697940  56.8683380  23.5745060
  49.6431160  59.9944940  13.8079060  50.0824440  59.1567370  13.6616880
  50.3559580  60.6274340  13.8943200  47.7526540  64.9341010  17.7760300
  48.1922450  65.6765340  17.3615690  47.6913430  65.1767580  18.6999260
  53.2248300  51.2487750  12.1220100  52.9120960  51.3414580  13.0219170
  53.9860770  51.8268780  12.0717530  39.7430440  58.6147550  16.5797440
  39.6228040  59.3409640  15.9678710  39.4331330  57.8450460  16.1025350
  37.3815810  61.7862690  22.3866080  37.4596230  61.9211460  21.4421800
  37.9957490  61.0778580  22.5794200  38.6263440  63.4862880  18.7972260
  38.2191520  63.6277470  17.9425860  39.5176450  63.2023040  18.5943470
  50.4196720  67.9210130  15.1323310  50.2597860  67.6313070  16.0305140
  50.2543430  67.1450260  14.5968540  42.8985100  67.7008660  16.9094930
  42.7227580  66.7844200  16.6962730  42.0440840  68.0595950  17.1492730
  50.1222850  65.4297690  13.6921310  49.4288010  65.4274980  13.0323590
  50.8645710  65.0057010  13.2615480  49.6872780  67.0560400  17.7669800
  50.1429730  66.2749780  18.0808420  50.0265300  67.7667220  18.3110980
  54.4349590  55.9859250  28.0994240  53.8193860  56.4938920  27.5709700
  54.1146010  55.0857580  28.0420180  42.2094100  51.9582620  19.9621110
  41.7662250  52.7392160  19.6305630  42.7679090  52.2812510  20.6692050
  45.3252920  51.5793320  14.8426940  44.7007100  51.5753190  15.5680250
  45.2383040  50.7124280  14.4462910  44.2470000  52.5029950  21.8210710
  44.5442330  53.4092780  21.7402730  44.7955560  52.0148730  21.2070280
  42.0008320  57.0816190  17.6902360  41.7749240  56.8653360  18.5948980
  41.2200850  57.5144650  17.3448330  49.2306080  57.0879560  16.2893010
  48.6314970  57.8115360  16.1056630  49.7785690  57.0256340  15.5069460
  47.8370950  55.7243100  18.3196290  48.2300520  56.0415300  17.5064980
  48.1987800  54.8454980  18.4340810  36.8735120  52.3143900  20.5426490
  36.5848170  52.8846760  21.2551470  37.6180880  51.8348350  20.9057720
  37.0605350  56.2564020  11.7529210  36.9780020  57.1994780  11.8944200
  36.7088410  56.1138930  10.8741560  48.4226090  58.3148850  22.4147070
  47.6907210  58.8235660  22.7637170  48.0250430  57.4978830  22.1135850
  44.8603480  54.9903050  20.8199560  44.8639540  54.5493000  19.9704100
  45.7554600  55.3120380  20.9271380  40.7105860  54.8729540  19.7793770
  40.3705910  55.3504770  20.5360820  39.9483180  54.4194660  19.4194870
  44.9223630  55.9915130  13.8106320  45.0436450  55.9501610  14.7592140
  44.5372140  56.8539280  13.6553050  48.8852000  53.7682530  21.8270010
  48.9024740  54.2191180  22.6711860  48.6367580  52.8688170  22.0403450
  43.9345130  58.3016270  13.2089620  43.3662030  57.8534520  12.5825530
  44.6434130  58.6609050  12.6754770  45.1611450  59.0504830  22.5664970
  45.5281580  58.5763400  23.3126310  44.9716510  59.9246400  22.9073310
  38.0251940  53.7948520  18.6958440  37.7398860  53.4304190  19.5337060
  37.9630800  53.0628980  18.0821580  41.4792610  62.2974460  15.4816030
  40.7054870  61.7572080  15.3214750  42.2087240  61.7781070  15.1433790
  52.2380590  61.2939820  21.2742420  52.9579710  61.7895110  20.8838530
  52.0362410  60.6157710  20.6296290  47.6990530  52.6877780  15.4171810
  46.8855140  52.1890950  15.3417120  47.5052480  53.5276030  15.0008160
  50.4138920  57.0597430  13.7133970  51.3018540  57.3714660  13.5385310
  50.3844010  56.1869680  13.3214550  41.5230010  61.9654840  19.1194840
  42.0408680  61.1623100  19.0651730  41.0714030  61.9033980  19.9611670
  46.4099510  63.2321120  14.3922140  46.7515210  63.9763350  13.8965460
  45.5812220  63.5452240  14.7546970  52.6853190  58.3709270  13.1813830
  52.6016910  58.8023490  12.3310270  53.4047380  58.8307620  13.6140650
  53.7140440  65.2251530  15.9095960  53.0716600  64.5707150  16.1839680
  53.3271100  65.6306620  15.1336630  49.2926920  62.5536960  19.7567650
  49.6450740  61.9565090  19.0969020  48.4089250  62.2281190  19.9275900
  45.3790200  63.3134650  17.1638060  46.0661330  63.8603860  17.5445650
  44.5922620  63.8575380  17.1987670  37.5182600  58.9307470  12.6555140
  38.3877450  59.2132270  12.9391060  37.0272920  59.7443340  12.5403950
  44.6817410  60.3180680  16.7763420  45.1380190  61.1285930  17.0023610
  44.3305620  60.0003820  17.6081910  40.5829190  50.6618330  17.2485940
  40.4543820  50.6536230  18.1970860  39.7591210  51.0001420  16.8976950
  48.2582100  63.8319370  22.7233170  48.9004330  63.1312530  22.8365340
  48.7831450  64.6117810  22.5430060  52.1037820  64.1167990  12.4472310
  51.8775400  63.3998430  13.0396950  51.7134020  63.8680430  11.6094060
  37.8853850  68.1434850  13.2216770  38.2451490  68.7424190  12.5674040
  37.7446190  68.6894740  13.9951800  51.6854070  62.0339930  14.1086470
  51.3975770  62.4952620  14.8964350  52.4806240  61.5737700  14.3770690
  43.9022470  65.5266050  14.0390440  43.8932570  66.2595740  13.4234950
  42.9820830  65.2797630  14.1317400  39.5029110  60.7480940  14.7837200
  38.8957060  61.4879840  14.7932500  39.9778460  60.8380300  13.9575400
  52.4423930  53.8688700  15.2681650  51.8137090  53.9734370  14.5539880
  51.9475850  54.0885480  16.0575530  46.8882070  65.5894290  12.7015630
  46.9894050  65.3858280  11.7717610  45.9883810  65.3352570  12.9063410
  44.4107960  56.1474650  16.6839530  43.7024110  56.6160990  17.1253140
  44.6952440  55.4896660  17.3184720  48.4423390  52.8725310  18.1235320
  48.3191170  52.8911440  17.1744830  49.3907950  52.9204250  18.2433720
  45.5300180  68.1080610  17.3963300  45.7841680  68.0702000  16.4742670
  44.5812660  67.9813940  17.3891550  42.6142980  54.4559730  14.0590240
  43.4633510  54.8929880  13.9930430  42.2474250  54.7679990  14.8862300
  53.2430750  53.7839310  25.5260450  52.7404350  54.5244710  25.8654260
  54.0587410  54.1723310  25.2097240  51.5352760  59.0272490  18.9721810
  50.5942900  59.0422720  19.1469500  51.8496830  58.2408450  19.4182110
  41.5134400  60.7092090  12.5325770  42.2797670  60.5973450  13.0951200
  41.5909090  60.0130060  11.8802540  40.2081160  58.1417160  13.2158660
  40.2884750  57.1944670  13.3276060  41.1000910  58.4724040  13.3219320
  53.5378340  66.1981340  20.6476070  53.6625760  67.0212510  21.1199880
  54.4043900  65.9872070  20.3000220  41.0095870  68.2912550  20.3193200
  41.7458350  67.7428010  20.5901770  41.3936790  69.1568560  20.1799190
  37.8941350  64.3586120  16.1934710  36.9681130  64.6007260  16.1840120
  38.3597780  65.1860380  16.0719460  44.1198180  67.4642860  12.1418770
  44.9126790  67.7531690  11.6900560  43.6002530  67.0335030  11.4631250
  53.1728350  66.6912990  13.5655510  52.8869860  66.2778130  12.7509690
  52.9747900  67.6200700  13.4456030  44.6375580  62.6846270  12.0061120
  44.5326220  62.0698620  12.7322500  44.4699800  62.1612160  11.2224130
  47.8778310  61.7466300  12.6103110  47.3288410  62.1935600  13.2545850
  48.4997570  61.2415550  13.1340780  43.5453430  60.7057220  14.5068410
  43.9669850  60.5397090  15.3499800  43.6704270  59.8957450  14.0123550
  46.0581070  59.7294830  11.7545510  46.5786730  59.0143850  11.3886660
  46.7049470  60.3680700  12.0546020  42.4412330  56.7790450  11.4526570
  42.2401390  55.9157810  11.8139910  42.2704380  56.6923810  10.5148170
  49.9200640  51.5898680  13.9813450  50.2002930  50.7466580  14.3372870
  49.1466370  51.8221790  14.4952200  41.2395130  53.8791070  11.4404450
  41.5421030  53.8858500  10.5323600  41.9789720  53.5288930  11.9372110
  44.4580060  52.8225690  12.4260650  44.1102060  52.1449680  11.8463100
  44.6592830  52.3615200  13.2404040  46.6229100  67.8106440  14.0447250
  47.5179890  68.1491410  14.0666010  46.6546730  67.0885850  13.4171530
  40.2625260  63.1833490  12.2734250  40.7000130  63.7263160  12.9291830
  40.7472990  62.3580440  12.2830590  37.4771060  65.9722520  19.7254510
  37.8074070  65.1043580  19.4933150  37.9062060  66.1781040  20.5559470
  42.0732980  64.3031530  17.3856480  41.7728520  64.1796500  18.2860390
  41.9670470  63.4440120  16.9772210  37.9661270  66.8393110  22.4636140
  37.5292260  67.0193910  23.2960290  38.5338950  67.5967730  22.3217860
  54.8424900  64.0827930  12.0883160  54.0117860  64.1504580  12.5590390
  55.0196730  64.9732050  11.7850020  54.2981360  60.8275410  14.5917360
  55.0600270  61.3972060  14.6977050  54.3135730  60.2602610  15.3625670
  37.7985700  59.3513340  18.8225020  37.1434540  59.0824980  18.1784720
  38.6363650  59.2417820  18.3727000  55.3041330  61.6825510  19.4359290
  55.6750160  60.8992830  19.0295260  55.9443260  62.3714610  19.2576590
  54.3500530  61.1209780  11.7489880  54.6249370  62.0288660  11.6209100
  54.1611270  61.0572310  12.6851870  50.7476140  54.1454630  13.0443510
  51.1661020  53.9585610  12.2040170  50.4412200  53.2933680  13.3546440
  54.2465870  59.0578770  16.7419310  53.8709470  58.2906700  16.3100600
  53.5168990  59.4401470  17.2294240  53.6365490  58.2050290  26.3758830
  53.4051580  57.9763040  25.4756780  53.8970040  59.1249840  26.3303720
  52.0753560  53.4306720  29.1538530  52.9523740  53.4390120  29.5372530
  52.0874400  52.6937560  28.5430880  37.0123780  56.5612270  14.7650350
  36.1087860  56.8242470  14.5902010  37.4964400  56.8323440  13.9850310
  53.5216830  57.2836260  20.0426550  54.0454310  56.7898910  19.4116720
  54.1076250  57.4186620  20.7874120  53.7006550  57.3676130  23.5646100
  52.7509260  57.3339670  23.6791090  53.8819560  58.2776240  23.3295870
  39.5550990  55.6177810  12.6744730  40.2642690  55.1961030  12.1892010
  38.8390930  55.6853040  12.0428080  39.2025150  51.6717140  11.7147380
  39.9253280  52.2126080  12.0328600  39.4749670  51.3980560  10.8388920
  53.0116800  56.5409610  15.9818960  53.5075920  56.3080480  16.7667840
  52.8132870  55.7021450  15.5656600  38.8917340  50.9223330  21.6170000
  39.5393530  50.3720710  21.1765160  39.3119180  51.1766480  22.4385810
  54.4403960  55.1770560  18.5156640  54.3303240  55.0226600  19.4538910
  55.2011550  54.6491500  18.2732050  52.7869680  51.1164690  24.9739640
  53.4241900  51.7298830  25.3398830  52.9344570  51.1525350  24.0288870
  55.3294230  53.0078480  11.7562780  56.2543540  52.8759660  11.5481070
  55.3070020  53.0871300  12.7099230  55.4032720  53.7789140  14.3819490
  54.6084220  53.7134260  14.9112400  55.6076000  54.7139780  14.3704840
  52.3451140  67.8180690  18.3757880  52.9410210  67.4965260  17.6992300
  52.6029290  67.3452510  19.1671150  49.5356760  50.4893080  23.8476320
  48.6616600  50.8228190  23.6449250  49.4267510  50.0166260  24.6728190
  52.8963350  68.4675990  22.2055610  52.4366320  69.2191800  21.8313630
  52.2675810  67.7482460  22.1470410  46.0654570  67.6672720  22.2072720
  46.3532380  67.4127020  21.3305730  46.5777790  67.1150080  22.7978290
  51.8352650  52.1086020  20.8318320  52.2760740  52.0531120  19.9839920
  51.5660240  53.0244030  20.9028500  53.6991220  51.7401260  18.8427140
  53.6379620  50.7962480  18.6958160  54.4783250  51.8481350  19.3880600
  38.0043970  67.8793620  17.8051090  37.8366010  67.2464300  18.5032980
  37.1378480  68.0853020  17.4545280  38.6271990  51.7110400  15.3082950
  39.3851350  51.8239280  14.7346980  38.1649160  52.5479600  15.2626380
  45.1685800  53.8249670  18.2985260  44.3560310  53.4506560  17.9581140
  45.6727440  53.0694750  18.6006450  49.6710780  50.4892120  19.5368330
  50.2740150  51.0612330  20.0116850  48.9303770  51.0531560  19.3142230
  52.8145380  50.8913680  14.8108610  53.0096010  51.7897130  15.0776040
  52.0275250  50.6600760  15.3041560  39.6106670  66.5726850  15.2501230
  39.0854290  66.9534880  14.5463190  39.5351250  67.1977620  15.9710940
  40.9997140  52.2374450  13.8484920  41.5289900  51.4504250  13.7192870
  41.6325460  52.9165640  14.0820450  43.1934980  51.9749590  16.9030310
  42.5637720  51.2736900  17.0700440  42.6540120  52.7353720  16.6863470
  54.3671990  68.1314390  16.5715170  54.5424180  67.4452130  15.9276090
  53.6693560  68.6561440  16.1791840  42.2099640  68.5209230  14.1250480
  42.9418460  68.2368510  13.5774370  42.4693310  68.2822510  15.0149860
  41.3714430  64.6373960  14.1296810  40.7423310  65.1059060  14.6782640
  41.4862260  63.7923180  14.5643000  46.9582190  60.4658640   2.1607280
  46.1824290  59.9859080   2.4505850  47.6095120  59.7864290   1.9863440
  40.9748020  60.7778450   3.0383040  40.1432900  60.5227160   3.4379550
  41.5829000  60.8489220   3.7740960  40.9549280  64.8118540   3.2341060
  41.2577320  63.9216280   3.0551280  41.6992870  65.3688760   3.0063310
  37.3472980  58.3385990   2.7065130  37.9189090  57.5708190   2.7068770
  37.3474520  58.6374750   1.7971740  46.3991180  63.1415830   2.1677440
  46.3299460  62.2005770   2.0066570  47.1611040  63.2317240   2.7400010
  38.5897850  53.7470350   4.4934060  38.4100690  52.8496100   4.7736820
  38.1877930  54.2942220   5.1681010  47.4296350  55.9486210   2.3946370
  47.8061170  55.0758090   2.2820040  47.3315860  56.2844910   1.5036810
  39.2084520  56.2430850   3.1016400  39.8894630  56.5069220   3.7203800
  38.8932570  55.4031720   3.4354410  43.4009090  57.2898210   2.1888990
  43.9087310  57.7879180   2.8294010  43.9322330  56.5133410   2.0128350
  55.5020020  55.4603400   5.8918340  54.7972190  55.8485110   5.3733450
  55.7677940  56.1553690   6.4939270  41.6845190  51.9296770   6.4552410
  41.6863630  52.4469160   5.6498310  40.8549500  51.4526950   6.4322340
  42.9348040  61.5691950   4.6325910  42.6017420  62.1960870   5.2746980
  43.1114720  62.0953830   3.8527580  51.4481950  55.3837030   2.1002250
  50.7437520  55.6721920   2.6805360  51.8094110  56.1937140   1.7401810
  41.3660520  53.6406730   4.4622860  41.7077330  54.4848780   4.1676730
  40.4276330  53.7890470   4.5788200  42.1467140  63.5372750   6.4475090
  42.7641140  64.2123830   6.1659540  41.2860260  63.9460730   6.3562590
  53.0644730  65.0012160   4.3629730  52.3808250  65.6711270   4.3546400
  53.6039020  65.1992810   3.5974590  54.5168870  54.8291820   2.4911460
  53.5693780  54.8630800   2.6226890  54.8418860  55.6430770   2.8760820
  50.6003470  66.8456290   3.0774910  50.6130630  66.4418580   2.2097170
  50.0478690  67.6203580   2.9736340  49.9988910  61.7486130   4.4057520
  50.4157700  61.5346240   3.5710980  50.7228730  62.0058920   4.9766140
  53.9451010  60.1473350   4.4973760  53.1169640  60.2166440   4.0223890
  54.5401490  60.7327660   4.0289590  50.9093020  56.9342670   5.4428630
  50.4964200  57.7596380   5.6968620  50.1768970  56.3487710   5.2504990
  43.5107510  63.4070130   2.4686510  43.2135800  62.8015600   1.7894290
  44.4607330  63.4447440   2.3575870  41.7554430  56.4945780   4.0846340
  42.3069020  56.6041120   3.3099590  42.2697940  56.8683380   4.8001570
  51.5993120  66.9802000   6.1309610  51.1223680  67.7874190   5.9382220
  50.9154910  66.3280330   6.2835820  42.6025940  63.1451820   9.1194310
  41.7054470  63.3691790   9.3667710  42.6278810  63.2686760   8.1705710
  41.4297160  60.0165140   7.6951680  41.2904930  60.8887940   8.0639080
  40.5478520  59.6737950   7.5499620  43.2277510  65.9586840   9.9036830
  43.1992940  66.3629790   9.0365260  43.0642480  65.0297200   9.7408430
  55.1792330  66.7413940  11.2001000  55.6552050  67.2196830  11.8790080
  55.7999490  66.6731430  10.4746500  37.3815810  61.7862690   3.6122590
  37.4596230  61.9211460   2.6678310  37.9957490  61.0778580   3.8050710
  54.5825580  63.9326790   8.3601010  54.7088640  63.6938670   7.4418190
  54.6246960  63.1011330   8.8323090  48.4442320  67.6354790   6.9295820
  48.9586990  67.5462800   7.7318250  47.6011400  67.9814490   7.2223730
  54.4349590  55.9859250   9.3250750  53.8193860  56.4938920   8.7966210
  54.1146010  55.0857580   9.2676690  37.4375330  62.8276860   6.1517050
  37.6006370  62.3582220   5.3336420  37.9027780  62.3200420   6.8165890
  46.4963910  54.8251140   6.7912940  46.0343280  55.0334160   7.6032880
  46.0942020  54.0110490   6.4883610  51.4968420  56.0460090   7.9209600
  50.6462010  55.7465840   8.2418670  51.3370210  56.2902100   7.0093420
  48.5918130  57.5461840  10.0208390  48.9171540  56.7125590   9.6810620
  49.3798460  58.0690360  10.1686720  44.2470000  52.5029950   3.0467220
  44.5442330  53.4092780   2.9659240  44.7955560  52.0148730   2.4326790
  44.4407530  57.9801770   9.5819140  44.3451130  57.0396500   9.4319540
  45.2839510  58.2016840   9.1867210  39.5718070  54.3915440   7.7352920
  39.1781460  55.2390650   7.9425700  38.8836470  53.7541810   7.9261560
  46.1463120  54.4750410  10.8049660  45.4561440  54.2822610  11.4395750
  46.8895420  54.7585050  11.3373960  36.8735120  52.3143900   1.7683000
  36.5848170  52.8846760   2.4807980  37.6180880  51.8348350   2.1314230
  48.4226090  58.3148850   3.6403580  47.6907210  58.8235660   3.9893680
  48.0250430  57.4978830   3.3392360  48.8852000  53.7682530   3.0526520
  48.9024740  54.2191180   3.8968370  48.6367580  52.8688170   3.2659960
  52.3122750  51.1814710   8.8912900  52.6368520  50.4504370   9.4170880
  52.3479260  50.8628350   7.9893890  39.0114310  62.2028290   8.3112860
  38.6269100  61.5621960   8.9095820  39.3226500  62.9064410   8.8807590
  45.1611450  59.0504830   3.7921480  45.5281580  58.5763400   4.5382820
  44.9716510  59.9246400   4.1329820  42.9510820  58.0913470   6.1105690
  42.6467890  58.9705450   6.3356050  43.9057280  58.1513260   6.1463130
  52.2380590  61.2939820   2.4998930  52.9579710  61.7895110   2.1095040
  52.0362410  60.6157710   1.8552800  47.6199390  61.3648880   8.3867930
  47.5536700  60.4444550   8.1325520  46.9904530  61.4624320   9.1012570
  39.0074550  58.9316210   7.2577050  38.6489490  59.5970060   7.8450390
  38.7129110  58.0999760   7.6289670  42.2087670  59.3900450  10.1416600
  41.9087810  59.5357630   9.2444420  42.9798910  58.8305740  10.0489990
  47.5516120  64.1869450   8.1371730  47.5660660  63.2550410   7.9190640
  46.8441220  64.2729210   8.7761500  53.7627330  60.8276790   7.4840310
  53.0375520  61.4205570   7.2869700  54.2902790  60.8200330   6.6853680
  46.9850020  65.8287020   5.2312230  47.6292240  66.0346400   5.9085650
  47.3479460  65.0675420   4.7783080  48.2582100  63.8319370   3.9489680
  48.9004330  63.1312530   4.0621850  48.7831450  64.6117810   3.7686570
  50.0319720  64.6314270   7.1525740  50.3675960  65.2180960   7.8303660
  49.1120060  64.5006980   7.3823530  37.5823120  52.4209450   7.9349150
  36.8681640  52.6206370   8.5401760  38.0018160  51.6449020   8.3063950
  37.8695710  66.4089710   8.9215680  37.9786830  65.4684450   8.7811070
  37.2176270  66.6744460   8.2729410  45.8608300  64.6805600  10.3213800
  45.5405170  63.9614840  10.8659490  45.1866660  65.3560670  10.3949860
  49.0761900  54.9131760   5.6850600  49.4442720  54.0926970   6.0130170
  48.2160100  54.9733650   6.1006250  46.0363890  57.5671350   5.9088570
  46.5349140  58.0417170   6.5740420  46.1786840  56.6434870   6.1158600
  53.2430750  53.7839310   6.7516960  52.7404350  54.5244710   7.0910770
  54.0587410  54.1723310   6.4353750  53.5378340  66.1981340   1.8732580
  53.6625760  67.0212510   2.3456390  54.4043900  65.9872070   1.5256730
  40.0154150  67.4758620  10.7335290  40.8166880  67.7970670  11.1470690
  39.5005970  67.1154200  11.4555200  48.8518780  63.5838490  10.6810700
  48.2456940  63.6070090   9.9406450  48.5472890  62.8521530  11.2177950
  50.2819150  67.3118780   9.2920110  51.2340900  67.2276800   9.2420350
  50.1347370  67.9760490   9.9653900  37.7351960  59.9632080   9.6771340
  38.2390980  59.3839360  10.2487570  36.9959380  60.2472310  10.2147710
  44.7889900  61.3703070   9.2106860  44.0235570  61.9388070   9.1261530
  44.9705860  61.0779280   8.3175090  51.9313250  63.1008400   9.7681880
  52.6722720  63.4384160   9.2649340  51.1685930  63.2700460   9.2151650
  39.7675040  58.1061670  10.5721410  39.8080380  57.8075540  11.4806640
  40.6220540  58.5069280  10.4128930  41.7080850  56.6853770   8.5395900
  41.1777310  56.1944720   7.9119240  42.3768920  57.1137970   8.0053830
  50.6058910  61.1523230   8.3037090  51.0199930  61.3068310   9.1527510
  49.6709910  61.2778450   8.4662870  51.0781080  58.4919390  10.3076240
  51.6601850  57.7371710  10.2196720  51.2542850  59.0226830   9.5307720
  42.1953150  53.6516140   8.6193190  42.1010020  53.0336890   7.8944060
  41.6150540  54.3782430   8.3923100  44.9614590  52.2089380   5.6520580
  44.5131890  52.2313640   4.8066130  44.3279790  51.8108400   6.2490880
  45.3674140  61.1043710   6.2733020  45.7862250  61.9476440   6.1009260
  44.4482770  61.2415750   6.0439800  47.7038040  58.8359890   7.6570860
  47.8234250  58.2401030   8.3965700  48.5632040  58.8729580   7.2372160
  50.0425940  59.3897080   6.2333370  49.5161160  59.9139700   5.6298510
  50.3857280  60.0224470   6.8643100  43.2181560  67.4096720   7.3890750
  42.6802650  68.1342780   7.0699450  43.4715520  66.9327060   6.5988090
  44.4706810  55.3781240   8.9146680  45.0606500  55.0697090   9.6024500
  43.6527050  54.9060990   9.0706580  49.2900240  54.9947050   9.1479700
  48.6015760  54.3328590   9.0829690  50.0106260  54.5485320   9.5928160
  46.0743770  68.6447930   7.6477400  46.0002470  69.5483070   7.9549770
  45.1722610  68.3259830   7.6199470  37.9661270  66.8393110   3.6892650
  37.5292260  67.0193910   4.5216800  38.5338950  67.5967730   3.5474370
  53.6023450  66.3410110   7.9769960  53.0025440  66.4002670   7.2333880
  53.7317350  65.4015090   8.1066810  52.2875090  63.0662090   6.0746120
  51.4734930  63.4959250   6.3371910  52.6949290  63.6780500   5.4615170
  38.8361630  59.7365910   4.5884870  39.2034670  59.6493310   5.4680890
  38.2672450  58.9732460   4.4891730  53.6365490  58.2050290   7.6015340
  53.4051580  57.9763040   6.7013290  53.8970040  59.1249840   7.5560230
  38.3877630  56.6475000   8.4943290  37.4933680  56.6141760   8.8337000
  38.9275180  56.8461790   9.2594540  52.0753560  53.4306720  10.3795040
  52.9523740  53.4390120  10.7629040  52.0874400  52.6937560   9.7687390
  53.7006550  57.3676130   4.7902610  52.7509260  57.3339670   4.9047600
  53.8819560  58.2776240   4.5552380  38.8917340  50.9223330   2.8426510
  39.5393530  50.3720710   2.4021670  39.3119180  51.1766480   3.6642320
  52.7869680  51.1164690   6.1996150  53.4241900  51.7298830   6.5655340
  52.9344570  51.1525350   5.2545380  38.6449340  51.0779000   5.5851830
  38.2964160  51.5342820   6.3510010  38.3137040  50.1836130   5.6674260
  40.2513710  64.2498600   9.7505020  40.2083340  63.8791510  10.6319480
  40.3824720  65.1876170   9.8906840  43.9519740  65.8058190   5.3514740
  43.7111100  66.0732750   4.4645260  44.8922380  65.9763920   5.4065600
  46.1574160  52.2690880   9.1071250  46.0963050  52.8612710   9.8566660
  47.0974540  52.1616840   8.9621510  48.7948720  51.9260940   8.7463540
  49.4089130  52.2440230   8.0844620  49.3398280  51.4409530   9.3659400
  55.2123900  67.8252570   6.1525380  54.7182180  68.2221440   5.4352510
  54.6037190  67.2001780   6.5462660  39.3169980  50.6055200   8.8602600
  39.8652970  50.4243250   8.0968710  39.3825290  49.8149310   9.3958910
  40.0901740  67.1960850   6.8702800  39.4962060  67.0645550   7.6092840
  40.0825580  66.3598990   6.4044900  49.5356760  50.4893080   5.0732830
  48.6616600  50.8228190   4.8705760  49.4267510  50.0166260   5.8984700
  50.4428740  52.6963950   6.4574550  50.1142100  51.8815710   6.0776280
  51.3911040  52.6533760   6.3340240  52.8963350  68.4675990   3.4312120
  52.4366320  69.2191800   3.0570140  52.2675810  67.7482460   3.3726920
  39.7213970  64.5619230   5.8210840  38.9948030  63.9424520   5.7536790
  39.7823120  64.9559840   4.9508920  43.3259070  66.7764230   2.6060250
  43.8424090  66.1651590   2.0808510  43.9756450  67.2793010   3.0971260
  46.0654570  67.6672720   3.4329230  46.3532380  67.4127020   2.5562240
  46.5777790  67.1150080   4.0234800  47.2831580  51.4062920   4.0125740
  46.5003370  51.8808420   4.2922500  46.9894510  50.5017750   3.9038920
  46.1326930  68.5888820  10.7997430  47.0594240  68.3533090  10.8433390
  46.1177360  69.4160820  10.3183460  43.3190540  51.2533570  10.5639310
  43.0374810  51.7567170   9.8000130  43.7010240  50.4555320  10.1981440
  49.9206000  50.6687150  11.1419780  49.8071450  50.9881760  12.0371300
  50.7375740  51.0699660  10.8457060  52.7004490  67.8158680  10.6238470
  53.4929810  67.3207910  10.4164430  52.9937640  68.4948820  11.2314080
  48.8264150  39.9136130  56.6028480  48.7458200  38.9990740  56.3320190
  48.4128570  40.4103200  55.8968190  50.9789620  46.0975340  57.2636880
  50.5171150  45.3262580  57.5924050  51.7915170  46.1241410  57.7689330
  39.3839970  36.9636850  53.1455900  38.4956670  37.3052820  53.0435780
  39.6681160  36.7637170  52.2536730  47.2052930  48.3833350  56.8840870
  46.5864370  48.8390850  56.3135310  48.0604710  48.5384810  56.4830570
  41.5601360  35.5468350  54.1794280  41.6668110  36.4472080  54.4863040
  40.6493720  35.4986320  53.8888930  51.2120470  34.6693160  55.6505180
  52.0330090  34.1789730  55.6930660  51.2454550  35.2590820  56.4037020
  48.0716280  43.2672590  54.2772780  47.4533550  43.7322040  53.7135500
  48.5839530  43.9600070  54.6942290  37.4399480  43.9529120  51.6512410
  37.0627460  44.4416220  50.9197310  37.6972550  44.6254400  52.2818940
  45.0488410  32.3545510  57.1097920  45.3563390  31.7992400  56.3933420
  44.1189110  32.4889970  56.9270910  51.8948890  44.7929020  54.4895550
  51.7845220  43.8503350  54.6144970  51.8917140  45.1544660  55.3758310
  47.4369170  40.4194340  53.8458040  46.5098450  40.3531720  54.0746510
  47.5893990  41.3574470  53.7313280  47.4238250  36.6911340  50.8425200
  46.4841920  36.8525300  50.9277660  47.7421510  37.4097020  50.2961190
  51.4666460  41.9814640  54.3493290  50.8478880  41.6434190  53.7019590
  51.4490910  41.3374400  55.0572480  43.0425810  40.9459080  56.6277770
  42.6382810  40.2336330  56.1323670  43.1288930  40.6012320  57.5165810
  49.6431160  41.2201450  51.3566040  50.0824440  40.3823880  51.2103860
  50.3559580  41.8530850  51.4430180  47.7526540  46.1597520  55.3247280
  48.1922450  46.9021850  54.9102670  47.6913430  46.4024090  56.2486240
  53.2248300  32.4744260  49.6707080  52.9120960  32.5671090  50.5706150
  53.9860770  33.0525290  49.6204510  39.7430440  39.8404060  54.1284420
  39.6228040  40.5666150  53.5165690  39.4331330  39.0706970  53.6512330
  38.6263440  44.7119390  56.3459240  38.2191520  44.8533980  55.4912840
  39.5176450  44.4279550  56.1430450  50.4196720  49.1466640  52.6810290
  50.2597860  48.8569580  53.5792120  50.2543430  48.3706770  52.1455520
  42.8985100  48.9265170  54.4581910  42.7227580  48.0100710  54.2449710
  42.0440840  49.2852460  54.6979710  50.1222850  46.6554200  51.2408290
  49.4288010  46.6531490  50.5810570  50.8645710  46.2313520  50.8102460
  49.6872780  48.2816910  55.3156780  50.1429730  47.5006290  55.6295400
  50.0265300  48.9923730  55.8597960  42.2094100  33.1839130  57.5108090
  41.7662250  33.9648670  57.1792610  42.7679090  33.5069020  58.2179030
  45.3252920  32.8049830  52.3913920  44.7007100  32.8009700  53.1167230
  45.2383040  31.9380790  51.9949890  42.0008320  38.3072700  55.2389340
  41.7749240  38.0909870  56.1435960  41.2200850  38.7401160  54.8935310
  49.2306080  38.3136070  53.8379990  48.6314970  39.0371870  53.6543610
  49.7785690  38.2512850  53.0556440  47.8370950  36.9499610  55.8683270
  48.2300520  37.2671810  55.0551960  48.1987800  36.0711490  55.9827790
  37.0605350  37.4820530  49.3016190  36.9780020  38.4251290  49.4431180
  36.7088410  37.3395440  48.4228540  44.8603480  36.2159560  58.3686540
  44.8639540  35.7749510  57.5191080  45.7554600  36.5376890  58.4758360
  40.7105860  36.0986050  57.3280750  40.3705910  36.5761280  58.0847800
  39.9483180  35.6451170  56.9681850  44.9223630  37.2171640  51.3593300
  45.0436450  37.1758120  52.3079120  44.5372140  38.0795790  51.2040030
  43.9345130  39.5272780  50.7576600  43.3662030  39.0791030  50.1312510
  44.6434130  39.8865560  50.2241750  38.0251940  35.0205030  56.2445420
  37.7398860  34.6560700  57.0824040  37.9630800  34.2885490  55.6308560
  41.4792610  43.5230970  53.0303010  40.7054870  42.9828590  52.8701730
  42.2087240  43.0037580  52.6920770  47.6990530  33.9134290  52.9658790
  46.8855140  33.4147460  52.8904100  47.5052480  34.7532540  52.5495140
  50.4138920  38.2853940  51.2620950  51.3018540  38.5971170  51.0872290
  50.3844010  37.4126190  50.8701530  41.5230010  43.1911350  56.6681820
  42.0408680  42.3879610  56.6138710  41.0714030  43.1290490  57.5098650
  46.4099510  44.4577630  51.9409120  46.7515210  45.2019860  51.4452440
  45.5812220  44.7708750  52.3033950  52.6853190  39.5965780  50.7300810
  52.6016910  40.0280000  49.8797250  53.4047380  40.0564130  51.1627630
  53.7140440  46.4508040  53.4582940  53.0716600  45.7963660  53.7326660
  53.3271100  46.8563130  52.6823610  49.2926920  43.7793470  57.3054630
  49.6450740  43.1821600  56.6456000  48.4089250  43.4537700  57.4762880
  45.3790200  44.5391160  54.7125040  46.0661330  45.0860370  55.0932630
  44.5922620  45.0831890  54.7474650  37.5182600  40.1563980  50.2042120
  38.3877450  40.4388780  50.4878040  37.0272920  40.9699850  50.0890930
  44.6817410  41.5437190  54.3250400  45.1380190  42.3542440  54.5510590
  44.3305620  41.2260330  55.1568890  40.5829190  31.8874840  54.7972920
  40.4543820  31.8792740  55.7457840  39.7591210  32.2257930  54.4463930
  52.1037820  45.3424500  49.9959290  51.8775400  44.6254940  50.5883930
  51.7134020  45.0936940  49.1581040  37.8853850  49.3691360  50.7703750
  38.2451490  49.9680700  50.1161020  37.7446190  49.9151250  51.5438780
  51.6854070  43.2596440  51.6573450  51.3975770  43.7209130  52.4451330
  52.4806240  42.7994210  51.9257670  43.9022470  46.7522560  51.5877420
  43.8932570  47.4852250  50.9721930  42.9820830  46.5054140  51.6804380
  39.5029110  41.9737450  52.3324180  38.8957060  42.7136350  52.3419480
  39.9778460  42.0636810  51.5062380  52.4423930  35.0945210  52.8168630
  51.8137090  35.1990880  52.1026860  51.9475850  35.3141990  53.6062510
  46.8882070  46.8150800  50.2502610  46.9894050  46.6114790  49.3204590
  45.9883810  46.5609080  50.4550390  44.4107960  37.3731160  54.2326510
  43.7024110  37.8417500  54.6740120  44.6952440  36.7153170  54.8671700
  48.4423390  34.0981820  55.6722300  48.3191170  34.1167950  54.7231810
  49.3907950  34.1460760  55.7920700  45.5300180  49.3337120  54.9450280
  45.7841680  49.2958510  54.0229650  44.5812660  49.2070450  54.9378530
  42.6142980  35.6816240  51.6077220  43.4633510  36.1186390  51.5417410
  42.2474250  35.9936500  52.4349280  51.5352760  40.2529000  56.5208790
  50.5942900  40.2679230  56.6956480  51.8496830  39.4664960  56.9669090
  41.5134400  41.9348600  50.0812750  42.2797670  41.8229960  50.6438180
  41.5909090  41.2386570  49.4289520  40.2081160  39.3673670  50.7645640
  40.2884750  38.4201180  50.8763040  41.1000910  39.6980550  50.8706300
  41.0095870  49.5169060  57.8680180  41.7458350  48.9684520  58.1388750
  41.3936790  50.3825070  57.7286170  37.8941350  45.5842630  53.7421690
  36.9681130  45.8263770  53.7327100  38.3597780  46.4116890  53.6206440
  44.1198180  48.6899370  49.6905750  44.9126790  48.9788200  49.2387540
  43.6002530  48.2591540  49.0118230  53.1728350  47.9169500  51.1142490
  52.8869860  47.5034640  50.2996670  52.9747900  48.8457210  50.9943010
  44.6375580  43.9102780  49.5548100  44.5326220  43.2955130  50.2809480
  44.4699800  43.3868670  48.7711110  47.8778310  42.9722810  50.1590090
  47.3288410  43.4192110  50.8032830  48.4997570  42.4672060  50.6827760
  43.5453430  41.9313730  52.0555390  43.9669850  41.7653600  52.8986780
  43.6704270  41.1213960  51.5610530  46.0581070  40.9551340  49.3032490
  46.5786730  40.2400360  48.9373640  46.7049470  41.5937210  49.6033000
  42.4412330  38.0046960  49.0013550  42.2401390  37.1414320  49.3626890
  42.2704380  37.9180320  48.0635150  49.9200640  32.8155190  51.5300430
  50.2002930  31.9723090  51.8859850  49.1466370  33.0478300  52.0439180
  41.2395130  35.1047580  48.9891430  41.5421030  35.1115010  48.0810580
  41.9789720  34.7545440  49.4859090  44.4580060  34.0482200  49.9747630
  44.1102060  33.3706190  49.3950080  44.6592830  33.5871710  50.7891020
  46.6229100  49.0362950  51.5934230  47.5179890  49.3747920  51.6152990
  46.6546730  48.3142360  50.9658510  40.2625260  44.4090000  49.8221230
  40.7000130  44.9519670  50.4778810  40.7472990  43.5836950  49.8317570
  37.4771060  47.1979030  57.2741490  37.8074070  46.3300090  57.0420130
  37.9062060  47.4037550  58.1046450  42.0732980  45.5288040  54.9343460
  41.7728520  45.4053010  55.8347370  41.9670470  44.6696630  54.5259190
  54.8424900  45.3084440  49.6370140  54.0117860  45.3761090  50.1077370
  55.0196730  46.1988560  49.3337000  54.2981360  42.0531920  52.1404340
  55.0600270  42.6228570  52.2464030  54.3135730  41.4859120  52.9112650
  37.7985700  40.5769850  56.3712000  37.1434540  40.3081490  55.7271700
  38.6363650  40.4674330  55.9213980  55.3041330  42.9082020  56.9846270
  55.6750160  42.1249340  56.5782240  55.9443260  43.5971120  56.8063570
  54.3500530  42.3466290  49.2976860  54.6249370  43.2545170  49.1696080
  54.1611270  42.2828820  50.2338850  50.7476140  35.3711140  50.5930490
  51.1661020  35.1842120  49.7527150  50.4412200  34.5190190  50.9033420
  54.2465870  40.2835280  54.2906290  53.8709470  39.5163210  53.8587580
  53.5168990  40.6657980  54.7781220  37.0123780  37.7868780  52.3137330
  36.1087860  38.0498980  52.1388990  37.4964400  38.0579950  51.5337290
  53.5216830  38.5092770  57.5913530  54.0454310  38.0155420  56.9603700
  54.1076250  38.6443130  58.3361100  39.5550990  36.8434320  50.2231710
  40.2642690  36.4217540  49.7378990  38.8390930  36.9109550  49.5915060
  39.2025150  32.8973650  49.2634360  39.9253280  33.4382590  49.5815580
  39.4749670  32.6237070  48.3875900  53.0116800  37.7666120  53.5305940
  53.5075920  37.5336990  54.3154820  52.8132870  36.9277960  53.1143580
  54.4403960  36.4027070  56.0643620  54.3303240  36.2483110  57.0025890
  55.2011550  35.8748010  55.8219030  55.3294230  34.2334990  49.3049760
  56.2543540  34.1016170  49.0968050  55.3070020  34.3127810  50.2586210
  55.4032720  35.0045650  51.9306470  54.6084220  34.9390770  52.4599380
  55.6076000  35.9396290  51.9191820  52.3451140  49.0437200  55.9244860
  52.9410210  48.7221770  55.2479280  52.6029290  48.5709020  56.7158130
  51.8352650  33.3342530  58.3805300  52.2760740  33.2787630  57.5326900
  51.5660240  34.2500540  58.4515480  53.6991220  32.9657770  56.3914120
  53.6379620  32.0218990  56.2445140  54.4783250  33.0737860  56.9367580
  38.0043970  49.1050130  55.3538070  37.8366010  48.4720810  56.0519960
  37.1378480  49.3109530  55.0032260  38.6271990  32.9366910  52.8569930
  39.3851350  33.0495790  52.2833960  38.1649160  33.7736110  52.8113360
  45.1685800  35.0506180  55.8472240  44.3560310  34.6763070  55.5068120
  45.6727440  34.2951260  56.1493430  49.6710780  31.7148630  57.0855310
  50.2740150  32.2868840  57.5603830  48.9303770  32.2788070  56.8629210
  52.8145380  32.1170190  52.3595590  53.0096010  33.0153640  52.6263020
  52.0275250  31.8857270  52.8528540  39.6106670  47.7983360  52.7988210
  39.0854290  48.1791390  52.0950170  39.5351250  48.4234130  53.5197920
  40.9997140  33.4630960  51.3971900  41.5289900  32.6760760  51.2679850
  41.6325460  34.1422150  51.6307430  43.1934980  33.2006100  54.4517290
  42.5637720  32.4993410  54.6187420  42.6540120  33.9610230  54.2350450
  54.3671990  49.3570900  54.1202150  54.5424180  48.6708640  53.4763070
  53.6693560  49.8817950  53.7278820  42.2099640  49.7465740  51.6737460
  42.9418460  49.4625020  51.1261350  42.4693310  49.5079020  52.5636840
  41.3714430  45.8630470  51.6783790  40.7423310  46.3315570  52.2269620
  41.4862260  45.0179690  52.1129980  48.8264150  39.9136130  37.8284990
  48.7458200  38.9990740  37.5576700  48.4128570  40.4103200  37.1224700
  46.9582190  41.6915150  39.7094260  46.1824290  41.2115590  39.9992830
  47.6095120  41.0120800  39.5350420  40.9748020  42.0034960  40.5870020
  40.1432900  41.7483670  40.9866530  41.5829000  42.0745730  41.3227940
  50.9789620  46.0975340  38.4893390  50.5171150  45.3262580  38.8180560
  51.7915170  46.1241410  38.9945840  40.9549280  46.0375050  40.7828040
  41.2577320  45.1472790  40.6038260  41.6992870  46.5945270  40.5550290
  37.3472980  39.5642500  40.2552110  37.9189090  38.7964700  40.2555750
  37.3474520  39.8631260  39.3458720  47.2052930  48.3833350  38.1097380
  46.5864370  48.8390850  37.5391820  48.0604710  48.5384810  37.7087080
  46.3991180  44.3672340  39.7164420  46.3299460  43.4262280  39.5553550
  47.1611040  44.4573750  40.2886990  38.5897850  34.9726860  42.0421040
  38.4100690  34.0752610  42.3223800  38.1877930  35.5198730  42.7167990
  47.4296350  37.1742720  39.9433350  47.8061170  36.3014600  39.8307020
  47.3315860  37.5101420  39.0523790  51.2120470  34.6693160  36.8761690
  52.0330090  34.1789730  36.9187170  51.2454550  35.2590820  37.6293530
  39.2084520  37.4687360  40.6503380  39.8894630  37.7325730  41.2690780
  38.8932570  36.6288230  40.9841390  43.4009090  38.5154720  39.7375970
  43.9087310  39.0135690  40.3780990  43.9322330  37.7389920  39.5615330
  55.5020020  36.6859910  43.4405320  54.7972190  37.0741620  42.9220430
  55.7677940  37.3810200  44.0426250  41.6845190  33.1553280  44.0039390
  41.6863630  33.6725670  43.1985290  40.8549500  32.6783460  43.9809320
  48.0716280  43.2672590  35.5029290  47.4533550  43.7322040  34.9392010
  48.5839530  43.9600070  35.9198800  42.9348040  42.7948460  42.1812890
  42.6017420  43.4217380  42.8233960  43.1114720  43.3210340  41.4014560
  51.4481950  36.6093540  39.6489230  50.7437520  36.8978430  40.2292340
  51.8094110  37.4193650  39.2888790  41.3660520  34.8663240  42.0109840
  41.7077330  35.7105290  41.7163710  40.4276330  35.0146980  42.1275180
  42.1467140  44.7629260  43.9962070  42.7641140  45.4380340  43.7146520
  41.2860260  45.1717240  43.9049570  53.0644730  46.2268670  41.9116710
  52.3808250  46.8967780  41.9033380  53.6039020  46.4249320  41.1461570
  54.5168870  36.0548330  40.0398440  53.5693780  36.0887310  40.1713870
  54.8418860  36.8687280  40.4247800  45.0488410  32.3545510  38.3354430
  45.3563390  31.7992400  37.6189930  44.1189110  32.4889970  38.1527420
  50.6003470  48.0712800  40.6261890  50.6130630  47.6675090  39.7584150
  50.0478690  48.8460090  40.5223320  51.8948890  44.7929020  35.7152060
  51.7845220  43.8503350  35.8401480  51.8917140  45.1544660  36.6014820
  49.9988910  42.9742640  41.9544500  50.4157700  42.7602750  41.1197960
  50.7228730  43.2315430  42.5253120  53.9451010  41.3729860  42.0460740
  53.1169640  41.4422950  41.5710870  54.5401490  41.9584170  41.5776570
  51.4666460  41.9814640  35.5749800  50.8478880  41.6434190  34.9276100
  51.4490910  41.3374400  36.2828990  50.9093020  38.1599180  42.9915610
  50.4964200  38.9852890  43.2455600  50.1768970  37.5744220  42.7991970
  43.0425810  40.9459080  37.8534280  42.6382810  40.2336330  37.3580180
  43.1288930  40.6012320  38.7422320  43.5107510  44.6326640  40.0173490
  43.2135800  44.0272110  39.3381270  44.4607330  44.6703950  39.9062850
  41.7554430  37.7202290  41.6333320  42.3069020  37.8297630  40.8586570
  42.2697940  38.0939890  42.3488550  51.5993120  48.2058510  43.6796590
  51.1223680  49.0130700  43.4869200  50.9154910  47.5536840  43.8322800
  42.6025940  44.3708330  46.6681290  41.7054470  44.5948300  46.9154690
  42.6278810  44.4943270  45.7192690  41.4297160  41.2421650  45.2438660
  41.2904930  42.1144450  45.6126060  40.5478520  40.8994460  45.0986600
  47.7526540  46.1597520  36.5503790  48.1922450  46.9021850  36.1359180
  47.6913430  46.4024090  37.4742750  43.2277510  47.1843350  47.4523810
  43.1992940  47.5886300  46.5852240  43.0642480  46.2553710  47.2895410
  55.1792330  47.9670450  48.7487980  55.6552050  48.4453340  49.4277060
  55.7999490  47.8987940  48.0233480  37.3815810  43.0119200  41.1609570
  37.4596230  43.1467970  40.2165290  37.9957490  42.3035090  41.3537690
  38.6263440  44.7119390  37.5715750  38.2191520  44.8533980  36.7169350
  39.5176450  44.4279550  37.3686960  54.5825580  45.1583300  45.9087990
  54.7088640  44.9195180  44.9905170  54.6246960  44.3267840  46.3810070
  48.4442320  48.8611300  44.4782800  48.9586990  48.7719310  45.2805230
  47.6011400  49.2071000  44.7710710  49.6872780  48.2816910  36.5413290
  50.1429730  47.5006290  36.8551910  50.0265300  48.9923730  37.0854470
  54.4349590  37.2115760  46.8737730  53.8193860  37.7195430  46.3453190
  54.1146010  36.3114090  46.8163670  37.4375330  44.0533370  43.7004030
  37.6006370  43.5838730  42.8823400  37.9027780  43.5456930  44.3652870
  42.2094100  33.1839130  38.7364600  41.7662250  33.9648670  38.4049120
  42.7679090  33.5069020  39.4435540  46.4963910  36.0507650  44.3399920
  46.0343280  36.2590670  45.1519860  46.0942020  35.2367000  44.0370590
  51.4968420  37.2716600  45.4696580  50.6462010  36.9722350  45.7905650
  51.3370210  37.5158610  44.5580400  48.5918130  38.7718350  47.5695370
  48.9171540  37.9382100  47.2297600  49.3798460  39.2946870  47.7173700
  44.2470000  33.7286460  40.5954200  44.5442330  34.6349290  40.5146220
  44.7955560  33.2405240  39.9813770  42.0008320  38.3072700  36.4645850
  41.7749240  38.0909870  37.3692470  41.2200850  38.7401160  36.1191820
  44.4407530  39.2058280  47.1306120  44.3451130  38.2653010  46.9806520
  45.2839510  39.4273350  46.7354190  47.8370950  36.9499610  37.0939780
  48.2300520  37.2671810  36.2808470  48.1987800  36.0711490  37.2084300
  39.5718070  35.6171950  45.2839900  39.1781460  36.4647160  45.4912680
  38.8836470  34.9798320  45.4748540  46.1463120  35.7006920  48.3536640
  45.4561440  35.5079120  48.9882730  46.8895420  35.9841560  48.8860940
  36.8735120  33.5400410  39.3169980  36.5848170  34.1103270  40.0294960
  37.6180880  33.0604860  39.6801210  48.4226090  39.5405360  41.1890560
  47.6907210  40.0492170  41.5380660  48.0250430  38.7235340  40.8879340
  44.8603480  36.2159560  39.5943050  44.8639540  35.7749510  38.7447590
  45.7554600  36.5376890  39.7014870  40.7105860  36.0986050  38.5537260
  40.3705910  36.5761280  39.3104310  39.9483180  35.6451170  38.1938360
  48.8852000  34.9939040  40.6013500  48.9024740  35.4447690  41.4455350
  48.6367580  34.0944680  40.8146940  52.3122750  32.4071220  46.4399880
  52.6368520  31.6760880  46.9657860  52.3479260  32.0884860  45.5380870
  39.0114310  43.4284800  45.8599840  38.6269100  42.7878470  46.4582800
  39.3226500  44.1320920  46.4294570  45.1611450  40.2761340  41.3408460
  45.5281580  39.8019910  42.0869800  44.9716510  41.1502910  41.6816800
  38.0251940  35.0205030  37.4701930  37.7398860  34.6560700  38.3080550
  37.9630800  34.2885490  36.8565070  42.9510820  39.3169980  43.6592670
  42.6467890  40.1961960  43.8843030  43.9057280  39.3769770  43.6950110
  52.2380590  42.5196330  40.0485910  52.9579710  43.0151620  39.6582020
  52.0362410  41.8414220  39.4039780  47.6199390  42.5905390  45.9354910
  47.5536700  41.6701060  45.6812500  46.9904530  42.6880830  46.6499550
  41.5230010  43.1911350  37.8938330  42.0408680  42.3879610  37.8395220
  41.0714030  43.1290490  38.7355160  39.0074550  40.1572720  44.8064030
  38.6489490  40.8226570  45.3937370  38.7129110  39.3256270  45.1776650
  42.2087670  40.6156960  47.6903580  41.9087810  40.7614140  46.7931400
  42.9798910  40.0562250  47.5976970  47.5516120  45.4125960  45.6858710
  47.5660660  44.4806920  45.4677620  46.8441220  45.4985720  46.3248480
  52.6853190  39.5965780  31.9557320  52.6016910  40.0280000  31.1053760
  53.4047380  40.0564130  32.3884140  53.7627330  42.0533300  45.0327290
  53.0375520  42.6462080  44.8356680  54.2902790  42.0456840  44.2340660
  53.7140440  46.4508040  34.6839450  53.0716600  45.7963660  34.9583170
  53.3271100  46.8563130  33.9080120  49.2926920  43.7793470  38.5311140
  49.6450740  43.1821600  37.8712510  48.4089250  43.4537700  38.7019390
  46.9850020  47.0543530  42.7799210  47.6292240  47.2602910  43.4572630
  47.3479460  46.2931930  42.3270060  48.2582100  45.0575880  41.4976660
  48.9004330  44.3569040  41.6108830  48.7831450  45.8374320  41.3173550
  50.0319720  45.8570780  44.7012720  50.3675960  46.4437470  45.3790640
  49.1120060  45.7263490  44.9310510  37.5823120  33.6465960  45.4836130
  36.8681640  33.8462880  46.0888740  38.0018160  32.8705530  45.8550930
  51.6854070  43.2596440  32.8829960  51.3975770  43.7209130  33.6707840
  52.4806240  42.7994210  33.1514180  37.8695710  47.6346220  46.4702660
  37.9786830  46.6940960  46.3298050  37.2176270  47.9000970  45.8216390
  45.8608300  45.9062110  47.8700780  45.5405170  45.1871350  48.4146470
  45.1866660  46.5817180  47.9436840  49.0761900  36.1388270  43.2337580
  49.4442720  35.3183480  43.5617150  48.2160100  36.1990160  43.6493230
  52.4423930  35.0945210  34.0425140  51.8137090  35.1990880  33.3283370
  51.9475850  35.3141990  34.8319020  46.0363890  38.7927860  43.4575550
  46.5349140  39.2673680  44.1227400  46.1786840  37.8691380  43.6645580
  48.4423390  34.0981820  36.8978810  48.3191170  34.1167950  35.9488320
  49.3907950  34.1460760  37.0177210  53.2430750  35.0095820  44.3003940
  52.7404350  35.7501220  44.6397750  54.0587410  35.3979820  43.9840730
  51.5352760  40.2529000  37.7465300  50.5942900  40.2679230  37.9212990
  51.8496830  39.4664960  38.1925600  53.5378340  47.4237850  39.4219560
  53.6625760  48.2469020  39.8943370  54.4043900  47.2128580  39.0743710
  41.0095870  49.5169060  39.0936690  41.7458350  48.9684520  39.3645260
  41.3936790  50.3825070  38.9542680  37.8941350  45.5842630  34.9678200
  36.9681130  45.8263770  34.9583610  38.3597780  46.4116890  34.8462950
  40.0154150  48.7015130  48.2822270  40.8166880  49.0227180  48.6957670
  39.5005970  48.3410710  49.0042180  48.8518780  44.8095000  48.2297680
  48.2456940  44.8326600  47.4893430  48.5472890  44.0778040  48.7664930
  50.2819150  48.5375290  46.8407090  51.2340900  48.4533310  46.7907330
  50.1347370  49.2017000  47.5140880  37.7351960  41.1888590  47.2258320
  38.2390980  40.6095870  47.7974550  36.9959380  41.4728820  47.7634690
  44.7889900  42.5959580  46.7593840  44.0235570  43.1644580  46.6748510
  44.9705860  42.3035790  45.8662070  51.9313250  44.3264910  47.3168860
  52.6722720  44.6640670  46.8136320  51.1685930  44.4956970  46.7638630
  39.7675040  39.3318180  48.1208390  39.8080380  39.0332050  49.0293620
  40.6220540  39.7325790  47.9615910  41.7080850  37.9110280  46.0882880
  41.1777310  37.4201230  45.4606220  42.3768920  38.3394480  45.5540810
  50.6058910  42.3779740  45.8524070  51.0199930  42.5324820  46.7014490
  49.6709910  42.5034960  46.0149850  51.0781080  39.7175900  47.8563220
  51.6601850  38.9628220  47.7683700  51.2542850  40.2483340  47.0794700
  42.1953150  34.8772650  46.1680170  42.1010020  34.2593400  45.4431040
  41.6150540  35.6038940  45.9410080  44.9614590  33.4345890  43.2007560
  44.5131890  33.4570150  42.3553110  44.3279790  33.0364910  43.7977860
  45.3674140  42.3300220  43.8220000  45.7862250  43.1732950  43.6496240
  44.4482770  42.4672260  43.5926780  47.7038040  40.0616400  45.2057840
  47.8234250  39.4657540  45.9452680  48.5632040  40.0986090  44.7859140
  50.0425940  40.6153590  43.7820350  49.5161160  41.1396210  43.1785490
  50.3857280  41.2480980  44.4130080  43.2181560  48.6353230  44.9377730
  42.6802650  49.3599290  44.6186430  43.4715520  48.1583570  44.1475070
  44.4706810  36.6037750  46.4633660  45.0606500  36.2953600  47.1511480
  43.6527050  36.1317500  46.6193560  49.2900240  36.2203560  46.6966680
  48.6015760  35.5585100  46.6316670  50.0106260  35.7741830  47.1415140
  46.0743770  49.8704440  45.1964380  46.0002470  50.7739580  45.5036750
  45.1722610  49.5516340  45.1686450  37.4771060  47.1979030  38.4998000
  37.8074070  46.3300090  38.2676640  37.9062060  47.4037550  39.3302960
  42.0732980  45.5288040  36.1599970  41.7728520  45.4053010  37.0603880
  41.9670470  44.6696630  35.7515700  37.9661270  48.0649620  41.2379630
  37.5292260  48.2450420  42.0703780  38.5338950  48.8224240  41.0961350
  53.6023450  47.5666620  45.5256940  53.0025440  47.6259180  44.7820860
  53.7317350  46.6271600  45.6553790  54.8424900  45.3084440  30.8626650
  54.0117860  45.3761090  31.3333880  55.0196730  46.1988560  30.5593510
  54.2981360  42.0531920  33.3660850  55.0600270  42.6228570  33.4720540
  54.3135730  41.4859120  34.1369160  37.7985700  40.5769850  37.5968510
  37.1434540  40.3081490  36.9528210  38.6363650  40.4674330  37.1470490
  55.3041330  42.9082020  38.2102780  55.6750160  42.1249340  37.8038750
  55.9443260  43.5971120  38.0320080  52.2875090  44.2918600  43.6233100
  51.4734930  44.7215760  43.8858890  52.6949290  44.9037010  43.0102150
  54.3500530  42.3466290  30.5233370  54.6249370  43.2545170  30.3952590
  54.1611270  42.2828820  31.4595360  54.2465870  40.2835280  35.5162800
  53.8709470  39.5163210  35.0844090  53.5168990  40.6657980  36.0037730
  38.8361630  40.9622420  42.1371850  39.2034670  40.8749820  43.0167870
  38.2672450  40.1988970  42.0378710  53.6365490  39.4306800  45.1502320
  53.4051580  39.2019550  44.2500270  53.8970040  40.3506350  45.1047210
  38.3877630  37.8731510  46.0430270  37.4933680  37.8398270  46.3823980
  38.9275180  38.0718300  46.8081520  52.0753560  34.6563230  47.9282020
  52.9523740  34.6646630  48.3116020  52.0874400  33.9194070  47.3174370
  53.5216830  38.5092770  38.8170040  54.0454310  38.0155420  38.1860210
  54.1076250  38.6443130  39.5617610  53.7006550  38.5932640  42.3389590
  52.7509260  38.5596180  42.4534580  53.8819560  39.5032750  42.1039360
  53.0116800  37.7666120  34.7562450  53.5075920  37.5336990  35.5411330
  52.8132870  36.9277960  34.3400090  38.8917340  32.1479840  40.3913490
  39.5393530  31.5977220  39.9508650  39.3119180  32.4022990  41.2129300
  54.4403960  36.4027070  37.2900130  54.3303240  36.2483110  38.2282400
  55.2011550  35.8748010  37.0475540  52.7869680  32.3421200  43.7483130
  53.4241900  32.9555340  44.1142320  52.9344570  32.3781860  42.8032360
  55.3294230  34.2334990  30.5306270  56.2543540  34.1016170  30.3224560
  55.3070020  34.3127810  31.4842720  55.4032720  35.0045650  33.1562980
  54.6084220  34.9390770  33.6855890  55.6076000  35.9396290  33.1448330
  52.3451140  49.0437200  37.1501370  52.9410210  48.7221770  36.4735790
  52.6029290  48.5709020  37.9414640  38.6449340  32.3035510  43.1338810
  38.2964160  32.7599330  43.8996990  38.3137040  31.4092640  43.2161240
  40.2513710  45.4755110  47.2992000  40.2083340  45.1048020  48.1806460
  40.3824720  46.4132680  47.4393820  43.9519740  47.0314700  42.9001720
  43.7111100  47.2989260  42.0132240  44.8922380  47.2020430  42.9552580
  46.1574160  33.4947390  46.6558230  46.0963050  34.0869220  47.4053640
  47.0974540  33.3873350  46.5108490  48.7948720  33.1517450  46.2950520
  49.4089130  33.4696740  45.6331600  49.3398280  32.6666040  46.9146380
  55.2123900  49.0509080  43.7012360  54.7182180  49.4477950  42.9839490
  54.6037190  48.4258290  44.0949640  39.3169980  31.8311710  46.4089580
  39.8652970  31.6499760  45.6455690  39.3825290  31.0405820  46.9445890
  40.0901740  48.4217360  44.4189780  39.4962060  48.2902060  45.1579820
  40.0825580  47.5855500  43.9531880  49.5356760  31.7149590  42.6219810
  48.6616600  32.0484700  42.4192740  49.4267510  31.2422770  43.4471680
  50.4428740  33.9220460  44.0061530  50.1142100  33.1072220  43.6263260
  51.3911040  33.8790270  43.8827220  52.8963350  49.6932500  40.9799100
  52.4366320  50.4448310  40.6057120  52.2675810  48.9738970  40.9213900
  39.7213970  45.7875740  43.3697820  38.9948030  45.1681030  43.3023770
  39.7823120  46.1816350  42.4995900  43.3259070  48.0020740  40.1547230
  43.8424090  47.3908100  39.6295490  43.9756450  48.5049520  40.6458240
  46.0654570  48.8929230  40.9816210  46.3532380  48.6383530  40.1049220
  46.5777790  48.3406590  41.5721780  47.2831580  32.6319430  41.5612720
  46.5003370  33.1064930  41.8409480  46.9894510  31.7274260  41.4525900
  51.8352650  33.3342530  39.6061810  52.2760740  33.2787630  38.7583410
  51.5660240  34.2500540  39.6771990  53.6991220  32.9657770  37.6170630
  53.6379620  32.0218990  37.4701650  54.4783250  33.0737860  38.1624090
  38.0043970  49.1050130  36.5794580  37.8366010  48.4720810  37.2776470
  37.1378480  49.3109530  36.2288770  45.1685800  35.0506180  37.0728750
  44.3560310  34.6763070  36.7324630  45.6727440  34.2951260  37.3749940
  49.6710780  31.7148630  38.3111820  50.2740150  32.2868840  38.7860340
  48.9303770  32.2788070  38.0885720  46.1326930  49.8145330  48.3484410
  47.0594240  49.5789600  48.3920370  46.1177360  50.6417330  47.8670440
  54.3671990  49.3570900  35.3458660  54.5424180  48.6708640  34.7019580
  53.6693560  49.8817950  34.9535330  43.3190540  32.4790080  48.1126290
  43.0374810  32.9823680  47.3487110  43.7010240  31.6811830  47.7468420
  49.9206000  31.8943660  48.6906760  49.8071450  32.2138270  49.5858280
  50.7375740  32.2956170  48.3944040  52.7004490  49.0415190  48.1725450
  53.4929810  48.5464420  47.9651410  52.9937640  49.7205330  48.7801060
  48.8264150  39.9136130  19.0541500  48.7458200  38.9990740  18.7833210
  48.4128570  40.4103200  18.3481210  46.9582190  41.6915150  20.9350770
  46.1824290  41.2115590  21.2249340  47.6095120  41.0120800  20.7606930
  40.9748020  42.0034960  21.8126530  40.1432900  41.7483670  22.2123040
  41.5829000  42.0745730  22.5484450  50.9789620  46.0975340  19.7149900
  50.5171150  45.3262580  20.0437070  51.7915170  46.1241410  20.2202350
  40.9549280  46.0375050  22.0084550  41.2577320  45.1472790  21.8294770
  41.6992870  46.5945270  21.7806800  39.3839970  36.9636850  15.5968920
  38.4956670  37.3052820  15.4948800  39.6681160  36.7637170  14.7049750
  47.2052930  48.3833350  19.3353890  46.5864370  48.8390850  18.7648330
  48.0604710  48.5384810  18.9343590  46.3991180  44.3672340  20.9420930
  46.3299460  43.4262280  20.7810060  47.1611040  44.4573750  21.5143500
  47.4296350  37.1742720  21.1689860  47.8061170  36.3014600  21.0563530
  47.3315860  37.5101420  20.2780300  41.5601360  35.5468350  16.6307300
  41.6668110  36.4472080  16.9376060  40.6493720  35.4986320  16.3401950
  51.2120470  34.6693160  18.1018200  52.0330090  34.1789730  18.1443680
  51.2454550  35.2590820  18.8550040  43.4009090  38.5154720  20.9632480
  43.9087310  39.0135690  21.6037500  43.9322330  37.7389920  20.7871840
  55.5020020  36.6859910  24.6661830  54.7972190  37.0741620  24.1476940
  55.7677940  37.3810200  25.2682760  48.0716280  43.2672590  16.7285800
  47.4533550  43.7322040  16.1648520  48.5839530  43.9600070  17.1455310
  51.4481950  36.6093540  20.8745740  50.7437520  36.8978430  21.4548850
  51.8094110  37.4193650  20.5145300  37.4399480  43.9529120  14.1025430
  37.0627460  44.4416220  13.3710330  37.6972550  44.6254400  14.7331960
  53.0644730  46.2268670  23.1373220  52.3808250  46.8967780  23.1289890
  53.6039020  46.4249320  22.3718080  54.5168870  36.0548330  21.2654950
  53.5693780  36.0887310  21.3970380  54.8418860  36.8687280  21.6504310
  45.0488410  32.3545510  19.5610940  45.3563390  31.7992400  18.8446440
  44.1189110  32.4889970  19.3783930  50.6003470  48.0712800  21.8518400
  50.6130630  47.6675090  20.9840660  50.0478690  48.8460090  21.7479830
  51.8948890  44.7929020  16.9408570  51.7845220  43.8503350  17.0657990
  51.8917140  45.1544660  17.8271330  49.9988910  42.9742640  23.1801010
  50.4157700  42.7602750  22.3454470  50.7228730  43.2315430  23.7509630
  47.4369170  40.4194340  16.2971060  46.5098450  40.3531720  16.5259530
  47.5893990  41.3574470  16.1826300  47.4238250  36.6911340  13.2938220
  46.4841920  36.8525300  13.3790680  47.7421510  37.4097020  12.7474210
  53.9451010  41.3729860  23.2717250  53.1169640  41.4422950  22.7967380
  54.5401490  41.9584170  22.8033080  51.4666460  41.9814640  16.8006310
  50.8478880  41.6434190  16.1532610  51.4490910  41.3374400  17.5085500
  50.9093020  38.1599180  24.2172120  50.4964200  38.9852890  24.4712110
  50.1768970  37.5744220  24.0248480  43.0425810  40.9459080  19.0790790
  42.6382810  40.2336330  18.5836690  43.1288930  40.6012320  19.9678830
  43.5107510  44.6326640  21.2430000  43.2135800  44.0272110  20.5637780
  44.4607330  44.6703950  21.1319360  49.6431160  41.2201450  13.8079060
  50.0824440  40.3823880  13.6616880  50.3559580  41.8530850  13.8943200
  47.7526540  46.1597520  17.7760300  48.1922450  46.9021850  17.3615690
  47.6913430  46.4024090  18.6999260  53.2248300  32.4744260  12.1220100
  52.9120960  32.5671090  13.0219170  53.9860770  33.0525290  12.0717530
  39.7430440  39.8404060  16.5797440  39.6228040  40.5666150  15.9678710
  39.4331330  39.0706970  16.1025350  55.1792330  47.9670450  29.9744490
  55.6552050  48.4453340  30.6533570  55.7999490  47.8987940  29.2489990
  38.6263440  44.7119390  18.7972260  38.2191520  44.8533980  17.9425860
  39.5176450  44.4279550  18.5943470  54.5825580  45.1583300  27.1344500
  54.7088640  44.9195180  26.2161680  54.6246960  44.3267840  27.6066580
  50.4196720  49.1466640  15.1323310  50.2597860  48.8569580  16.0305140
  50.2543430  48.3706770  14.5968540  42.8985100  48.9265170  16.9094930
  42.7227580  48.0100710  16.6962730  42.0440840  49.2852460  17.1492730
  50.1222850  46.6554200  13.6921310  49.4288010  46.6531490  13.0323590
  50.8645710  46.2313520  13.2615480  49.6872780  48.2816910  17.7669800
  50.1429730  47.5006290  18.0808420  50.0265300  48.9923730  18.3110980
  54.4349590  37.2115760  28.0994240  53.8193860  37.7195430  27.5709700
  54.1146010  36.3114090  28.0420180  42.2094100  33.1839130  19.9621110
  41.7662250  33.9648670  19.6305630  42.7679090  33.5069020  20.6692050
  51.4968420  37.2716600  26.6953090  50.6462010  36.9722350  27.0162160
  51.3370210  37.5158610  25.7836910  45.3252920  32.8049830  14.8426940
  44.7007100  32.8009700  15.5680250  45.2383040  31.9380790  14.4462910
  44.2470000  33.7286460  21.8210710  44.5442330  34.6349290  21.7402730
  44.7955560  33.2405240  21.2070280  42.0008320  38.3072700  17.6902360
  41.7749240  38.0909870  18.5948980  41.2200850  38.7401160  17.3448330
  49.2306080  38.3136070  16.2893010  48.6314970  39.0371870  16.1056630
  49.7785690  38.2512850  15.5069460  47.8370950  36.9499610  18.3196290
  48.2300520  37.2671810  17.5064980  48.1987800  36.0711490  18.4340810
  36.8735120  33.5400410  20.5426490  36.5848170  34.1103270  21.2551470
  37.6180880  33.0604860  20.9057720  37.0605350  37.4820530  11.7529210
  36.9780020  38.4251290  11.8944200  36.7088410  37.3395440  10.8741560
  48.4226090  39.5405360  22.4147070  47.6907210  40.0492170  22.7637170
  48.0250430  38.7235340  22.1135850  44.8603480  36.2159560  20.8199560
  44.8639540  35.7749510  19.9704100  45.7554600  36.5376890  20.9271380
  40.7105860  36.0986050  19.7793770  40.3705910  36.5761280  20.5360820
  39.9483180  35.6451170  19.4194870  44.9223630  37.2171640  13.8106320
  45.0436450  37.1758120  14.7592140  44.5372140  38.0795790  13.6553050
  48.8852000  34.9939040  21.8270010  48.9024740  35.4447690  22.6711860
  48.6367580  34.0944680  22.0403450  43.9345130  39.5272780  13.2089620
  43.3662030  39.0791030  12.5825530  44.6434130  39.8865560  12.6754770
  45.1611450  40.2761340  22.5664970  45.5281580  39.8019910  23.3126310
  44.9716510  41.1502910  22.9073310  38.0251940  35.0205030  18.6958440
  37.7398860  34.6560700  19.5337060  37.9630800  34.2885490  18.0821580
  41.4792610  43.5230970  15.4816030  40.7054870  42.9828590  15.3214750
  42.2087240  43.0037580  15.1433790  52.2380590  42.5196330  21.2742420
  52.9579710  43.0151620  20.8838530  52.0362410  41.8414220  20.6296290
  47.6990530  33.9134290  15.4171810  46.8855140  33.4147460  15.3417120
  47.5052480  34.7532540  15.0008160  50.4138920  38.2853940  13.7133970
  51.3018540  38.5971170  13.5385310  50.3844010  37.4126190  13.3214550
  41.5230010  43.1911350  19.1194840  42.0408680  42.3879610  19.0651730
  41.0714030  43.1290490  19.9611670  46.4099510  44.4577630  14.3922140
  46.7515210  45.2019860  13.8965460  45.5812220  44.7708750  14.7546970
  52.6853190  39.5965780  13.1813830  52.6016910  40.0280000  12.3310270
  53.4047380  40.0564130  13.6140650  53.7627330  42.0533300  26.2583800
  53.0375520  42.6462080  26.0613190  54.2902790  42.0456840  25.4597170
  53.7140440  46.4508040  15.9095960  53.0716600  45.7963660  16.1839680
  53.3271100  46.8563130  15.1336630  49.2926920  43.7793470  19.7567650
  49.6450740  43.1821600  19.0969020  48.4089250  43.4537700  19.9275900
  45.3790200  44.5391160  17.1638060  46.0661330  45.0860370  17.5445650
  44.5922620  45.0831890  17.1987670  37.5182600  40.1563980  12.6555140
  38.3877450  40.4388780  12.9391060  37.0272920  40.9699850  12.5403950
  44.6817410  41.5437190  16.7763420  45.1380190  42.3542440  17.0023610
  44.3305620  41.2260330  17.6081910  40.5829190  31.8874840  17.2485940
  40.4543820  31.8792740  18.1970860  39.7591210  32.2257930  16.8976950
  48.2582100  45.0575880  22.7233170  48.9004330  44.3569040  22.8365340
  48.7831450  45.8374320  22.5430060  52.1037820  45.3424500  12.4472310
  51.8775400  44.6254940  13.0396950  51.7134020  45.0936940  11.6094060
  37.8853850  49.3691360  13.2216770  38.2451490  49.9680700  12.5674040
  37.7446190  49.9151250  13.9951800  51.6854070  43.2596440  14.1086470
  51.3975770  43.7209130  14.8964350  52.4806240  42.7994210  14.3770690
  43.9022470  46.7522560  14.0390440  43.8932570  47.4852250  13.4234950
  42.9820830  46.5054140  14.1317400  39.5029110  41.9737450  14.7837200
  38.8957060  42.7136350  14.7932500  39.9778460  42.0636810  13.9575400
  52.4423930  35.0945210  15.2681650  51.8137090  35.1990880  14.5539880
  51.9475850  35.3141990  16.0575530  46.8882070  46.8150800  12.7015630
  46.9894050  46.6114790  11.7717610  45.9883810  46.5609080  12.9063410
  44.4107960  37.3731160  16.6839530  43.7024110  37.8417500  17.1253140
  44.6952440  36.7153170  17.3184720  48.4423390  34.0981820  18.1235320
  48.3191170  34.1167950  17.1744830  49.3907950  34.1460760  18.2433720
  45.5300180  49.3337120  17.3963300  45.7841680  49.2958510  16.4742670
  44.5812660  49.2070450  17.3891550  42.6142980  35.6816240  14.0590240
  43.4633510  36.1186390  13.9930430  42.2474250  35.9936500  14.8862300
  53.2430750  35.0095820  25.5260450  52.7404350  35.7501220  25.8654260
  54.0587410  35.3979820  25.2097240  51.5352760  40.2529000  18.9721810
  50.5942900  40.2679230  19.1469500  51.8496830  39.4664960  19.4182110
  41.5134400  41.9348600  12.5325770  42.2797670  41.8229960  13.0951200
  41.5909090  41.2386570  11.8802540  40.2081160  39.3673670  13.2158660
  40.2884750  38.4201180  13.3276060  41.1000910  39.6980550  13.3219320
  53.5378340  47.4237850  20.6476070  53.6625760  48.2469020  21.1199880
  54.4043900  47.2128580  20.3000220  41.0095870  49.5169060  20.3193200
  41.7458350  48.9684520  20.5901770  41.3936790  50.3825070  20.1799190
  37.8941350  45.5842630  16.1934710  36.9681130  45.8263770  16.1840120
  38.3597780  46.4116890  16.0719460  44.1198180  48.6899370  12.1418770
  44.9126790  48.9788200  11.6900560  43.6002530  48.2591540  11.4631250
  53.1728350  47.9169500  13.5655510  52.8869860  47.5034640  12.7509690
  52.9747900  48.8457210  13.4456030  44.6375580  43.9102780  12.0061120
  44.5326220  43.2955130  12.7322500  44.4699800  43.3868670  11.2224130
  47.8778310  42.9722810  12.6103110  47.3288410  43.4192110  13.2545850
  48.4997570  42.4672060  13.1340780  51.9313250  44.3264910  28.5425370
  52.6722720  44.6640670  28.0392830  51.1685930  44.4956970  27.9895140
  43.5453430  41.9313730  14.5068410  43.9669850  41.7653600  15.3499800
  43.6704270  41.1213960  14.0123550  46.0581070  40.9551340  11.7545510
  46.5786730  40.2400360  11.3886660  46.7049470  41.5937210  12.0546020
  50.6058910  42.3779740  27.0780580  51.0199930  42.5324820  27.9271000
  49.6709910  42.5034960  27.2406360  51.0781080  39.7175900  29.0819730
  51.6601850  38.9628220  28.9940210  51.2542850  40.2483340  28.3051210
  42.4412330  38.0046960  11.4526570  42.2401390  37.1414320  11.8139910
  42.2704380  37.9180320  10.5148170  49.9200640  32.8155190  13.9813450
  50.2002930  31.9723090  14.3372870  49.1466370  33.0478300  14.4952200
  41.2395130  35.1047580  11.4404450  41.5421030  35.1115010  10.5323600
  41.9789720  34.7545440  11.9372110  44.4580060  34.0482200  12.4260650
  44.1102060  33.3706190  11.8463100  44.6592830  33.5871710  13.2404040
  46.6229100  49.0362950  14.0447250  47.5179890  49.3747920  14.0666010
  46.6546730  48.3142360  13.4171530  40.2625260  44.4090000  12.2734250
  40.7000130  44.9519670  12.9291830  40.7472990  43.5836950  12.2830590
  37.4771060  47.1979030  19.7254510  37.8074070  46.3300090  19.4933150
  37.9062060  47.4037550  20.5559470  42.0732980  45.5288040  17.3856480
  41.7728520  45.4053010  18.2860390  41.9670470  44.6696630  16.9772210
  53.6023450  47.5666620  26.7513450  53.0025440  47.6259180  26.0077370
  53.7317350  46.6271600  26.8810300  54.8424900  45.3084440  12.0883160
  54.0117860  45.3761090  12.5590390  55.0196730  46.1988560  11.7850020
  54.2981360  42.0531920  14.5917360  55.0600270  42.6228570  14.6977050
  54.3135730  41.4859120  15.3625670  37.7985700  40.5769850  18.8225020
  37.1434540  40.3081490  18.1784720  38.6363650  40.4674330  18.3727000
  55.3041330  42.9082020  19.4359290  55.6750160  42.1249340  19.0295260
  55.9443260  43.5971120  19.2576590  52.2875090  44.2918600  24.8489610
  51.4734930  44.7215760  25.1115400  52.6949290  44.9037010  24.2358660
  54.3500530  42.3466290  11.7489880  54.6249370  43.2545170  11.6209100
  54.1611270  42.2828820  12.6851870  50.7476140  35.3711140  13.0443510
  51.1661020  35.1842120  12.2040170  50.4412200  34.5190190  13.3546440
  54.2465870  40.2835280  16.7419310  53.8709470  39.5163210  16.3100600
  53.5168990  40.6657980  17.2294240  53.6365490  39.4306800  26.3758830
  53.4051580  39.2019550  25.4756780  53.8970040  40.3506350  26.3303720
  52.0753560  34.6563230  29.1538530  52.9523740  34.6646630  29.5372530
  52.0874400  33.9194070  28.5430880  37.0123780  37.7868780  14.7650350
  36.1087860  38.0498980  14.5902010  37.4964400  38.0579950  13.9850310
  53.5216830  38.5092770  20.0426550  54.0454310  38.0155420  19.4116720
  54.1076250  38.6443130  20.7874120  53.7006550  38.5932640  23.5646100
  52.7509260  38.5596180  23.6791090  53.8819560  39.5032750  23.3295870
  39.5550990  36.8434320  12.6744730  40.2642690  36.4217540  12.1892010
  38.8390930  36.9109550  12.0428080  39.2025150  32.8973650  11.7147380
  39.9253280  33.4382590  12.0328600  39.4749670  32.6237070  10.8388920
  53.0116800  37.7666120  15.9818960  53.5075920  37.5336990  16.7667840
  52.8132870  36.9277960  15.5656600  38.8917340  32.1479840  21.6170000
  39.5393530  31.5977220  21.1765160  39.3119180  32.4022990  22.4385810
  54.4403960  36.4027070  18.5156640  54.3303240  36.2483110  19.4538910
  55.2011550  35.8748010  18.2732050  55.3294230  34.2334990  11.7562780
  56.2543540  34.1016170  11.5481070  55.3070020  34.3127810  12.7099230
  55.4032720  35.0045650  14.3819490  54.6084220  34.9390770  14.9112400
  55.6076000  35.9396290  14.3704840  52.3451140  49.0437200  18.3757880
  52.9410210  48.7221770  17.6992300  52.6029290  48.5709020  19.1671150
  55.2123900  49.0509080  24.9268870  54.7182180  49.4477950  24.2096000
  54.6037190  48.4258290  25.3206150  52.8963350  49.6932500  22.2055610
  52.4366320  50.4448310  21.8313630  52.2675810  48.9738970  22.1470410
  43.3259070  48.0020740  21.3803740  43.8424090  47.3908100  20.8552000
  43.9756450  48.5049520  21.8714750  46.0654570  48.8929230  22.2072720
  46.3532380  48.6383530  21.3305730  46.5777790  48.3406590  22.7978290
  47.2831580  32.6319430  22.7869230  46.5003370  33.1064930  23.0665990
  46.9894510  31.7274260  22.6782410  51.8352650  33.3342530  20.8318320
  52.2760740  33.2787630  19.9839920  51.5660240  34.2500540  20.9028500
  53.6991220  32.9657770  18.8427140  53.6379620  32.0218990  18.6958160
  54.4783250  33.0737860  19.3880600  38.0043970  49.1050130  17.8051090
  37.8366010  48.4720810  18.5032980  37.1378480  49.3109530  17.4545280
  38.6271990  32.9366910  15.3082950  39.3851350  33.0495790  14.7346980
  38.1649160  33.7736110  15.2626380  45.1685800  35.0506180  18.2985260
  44.3560310  34.6763070  17.9581140  45.6727440  34.2951260  18.6006450
  49.6710780  31.7148630  19.5368330  50.2740150  32.2868840  20.0116850
  48.9303770  32.2788070  19.3142230  52.8145380  32.1170190  14.8108610
  53.0096010  33.0153640  15.0776040  52.0275250  31.8857270  15.3041560
  39.6106670  47.7983360  15.2501230  39.0854290  48.1791390  14.5463190
  39.5351250  48.4234130  15.9710940  40.9997140  33.4630960  13.8484920
  41.5289900  32.6760760  13.7192870  41.6325460  34.1422150  14.0820450
  43.1934980  33.2006100  16.9030310  42.5637720  32.4993410  17.0700440
  42.6540120  33.9610230  16.6863470  54.3671990  49.3570900  16.5715170
  54.5424180  48.6708640  15.9276090  53.6693560  49.8817950  16.1791840
  42.2099640  49.7465740  14.1250480  42.9418460  49.4625020  13.5774370
  42.4693310  49.5079020  15.0149860  41.3714430  45.8630470  14.1296810
  40.7423310  46.3315570  14.6782640  41.4862260  45.0179690  14.5643000
  46.9582190  41.6915150   2.1607280  46.1824290  41.2115590   2.4505850
  47.6095120  41.0120800   1.9863440  40.9748020  42.0034960   3.0383040
  40.1432900  41.7483670   3.4379550  41.5829000  42.0745730   3.7740960
  40.9549280  46.0375050   3.2341060  41.2577320  45.1472790   3.0551280
  41.6992870  46.5945270   3.0063310  37.3472980  39.5642500   2.7065130
  37.9189090  38.7964700   2.7068770  37.3474520  39.8631260   1.7971740
  46.3991180  44.3672340   2.1677440  46.3299460  43.4262280   2.0066570
  47.1611040  44.4573750   2.7400010  38.5897850  34.9726860   4.4934060
  38.4100690  34.0752610   4.7736820  38.1877930  35.5198730   5.1681010
  47.4296350  37.1742720   2.3946370  47.8061170  36.3014600   2.2820040
  47.3315860  37.5101420   1.5036810  39.2084520  37.4687360   3.1016400
  39.8894630  37.7325730   3.7203800  38.8932570  36.6288230   3.4354410
  43.4009090  38.5154720   2.1888990  43.9087310  39.0135690   2.8294010
  43.9322330  37.7389920   2.0128350  55.5020020  36.6859910   5.8918340
  54.7972190  37.0741620   5.3733450  55.7677940  37.3810200   6.4939270
  41.6845190  33.1553280   6.4552410  41.6863630  33.6725670   5.6498310
  40.8549500  32.6783460   6.4322340  42.9348040  42.7948460   4.6325910
  42.6017420  43.4217380   5.2746980  43.1114720  43.3210340   3.8527580
  51.4481950  36.6093540   2.1002250  50.7437520  36.8978430   2.6805360
  51.8094110  37.4193650   1.7401810  41.3660520  34.8663240   4.4622860
  41.7077330  35.7105290   4.1676730  40.4276330  35.0146980   4.5788200
  42.1467140  44.7629260   6.4475090  42.7641140  45.4380340   6.1659540
  41.2860260  45.1717240   6.3562590  53.0644730  46.2268670   4.3629730
  52.3808250  46.8967780   4.3546400  53.6039020  46.4249320   3.5974590
  54.5168870  36.0548330   2.4911460  53.5693780  36.0887310   2.6226890
  54.8418860  36.8687280   2.8760820  50.6003470  48.0712800   3.0774910
  50.6130630  47.6675090   2.2097170  50.0478690  48.8460090   2.9736340
  49.9988910  42.9742640   4.4057520  50.4157700  42.7602750   3.5710980
  50.7228730  43.2315430   4.9766140  53.9451010  41.3729860   4.4973760
  53.1169640  41.4422950   4.0223890  54.5401490  41.9584170   4.0289590
  50.9093020  38.1599180   5.4428630  50.4964200  38.9852890   5.6968620
  50.1768970  37.5744220   5.2504990  43.5107510  44.6326640   2.4686510
  43.2135800  44.0272110   1.7894290  44.4607330  44.6703950   2.3575870
  41.7554430  37.7202290   4.0846340  42.3069020  37.8297630   3.3099590
  42.2697940  38.0939890   4.8001570  51.5993120  48.2058510   6.1309610
  51.1223680  49.0130700   5.9382220  50.9154910  47.5536840   6.2835820
  42.6025940  44.3708330   9.1194310  41.7054470  44.5948300   9.3667710
  42.6278810  44.4943270   8.1705710  41.4297160  41.2421650   7.6951680
  41.2904930  42.1144450   8.0639080  40.5478520  40.8994460   7.5499620
  43.2277510  47.1843350   9.9036830  43.1992940  47.5886300   9.0365260
  43.0642480  46.2553710   9.7408430  55.1792330  47.9670450  11.2001000
  55.6552050  48.4453340  11.8790080  55.7999490  47.8987940  10.4746500
  37.3815810  43.0119200   3.6122590  37.4596230  43.1467970   2.6678310
  37.9957490  42.3035090   3.8050710  54.5825580  45.1583300   8.3601010
  54.7088640  44.9195180   7.4418190  54.6246960  44.3267840   8.8323090
  48.4442320  48.8611300   6.9295820  48.9586990  48.7719310   7.7318250
  47.6011400  49.2071000   7.2223730  54.4349590  37.2115760   9.3250750
  53.8193860  37.7195430   8.7966210  54.1146010  36.3114090   9.2676690
  37.4375330  44.0533370   6.1517050  37.6006370  43.5838730   5.3336420
  37.9027780  43.5456930   6.8165890  46.4963910  36.0507650   6.7912940
  46.0343280  36.2590670   7.6032880  46.0942020  35.2367000   6.4883610
  51.4968420  37.2716600   7.9209600  50.6462010  36.9722350   8.2418670
  51.3370210  37.5158610   7.0093420  48.5918130  38.7718350  10.0208390
  48.9171540  37.9382100   9.6810620  49.3798460  39.2946870  10.1686720
  44.2470000  33.7286460   3.0467220  44.5442330  34.6349290   2.9659240
  44.7955560  33.2405240   2.4326790  44.4407530  39.2058280   9.5819140
  44.3451130  38.2653010   9.4319540  45.2839510  39.4273350   9.1867210
  39.5718070  35.6171950   7.7352920  39.1781460  36.4647160   7.9425700
  38.8836470  34.9798320   7.9261560  46.1463120  35.7006920  10.8049660
  45.4561440  35.5079120  11.4395750  46.8895420  35.9841560  11.3373960
  36.8735120  33.5400410   1.7683000  36.5848170  34.1103270   2.4807980
  37.6180880  33.0604860   2.1314230  48.4226090  39.5405360   3.6403580
  47.6907210  40.0492170   3.9893680  48.0250430  38.7235340   3.3392360
  48.8852000  34.9939040   3.0526520  48.9024740  35.4447690   3.8968370
  48.6367580  34.0944680   3.2659960  52.3122750  32.4071220   8.8912900
  52.6368520  31.6760880   9.4170880  52.3479260  32.0884860   7.9893890
  39.0114310  43.4284800   8.3112860  38.6269100  42.7878470   8.9095820
  39.3226500  44.1320920   8.8807590  45.1611450  40.2761340   3.7921480
  45.5281580  39.8019910   4.5382820  44.9716510  41.1502910   4.1329820
  42.9510820  39.3169980   6.1105690  42.6467890  40.1961960   6.3356050
  43.9057280  39.3769770   6.1463130  52.2380590  42.5196330   2.4998930
  52.9579710  43.0151620   2.1095040  52.0362410  41.8414220   1.8552800
  47.6199390  42.5905390   8.3867930  47.5536700  41.6701060   8.1325520
  46.9904530  42.6880830   9.1012570  39.0074550  40.1572720   7.2577050
  38.6489490  40.8226570   7.8450390  38.7129110  39.3256270   7.6289670
  42.2087670  40.6156960  10.1416600  41.9087810  40.7614140   9.2444420
  42.9798910  40.0562250  10.0489990  47.5516120  45.4125960   8.1371730
  47.5660660  44.4806920   7.9190640  46.8441220  45.4985720   8.7761500
  53.7627330  42.0533300   7.4840310  53.0375520  42.6462080   7.2869700
  54.2902790  42.0456840   6.6853680  46.9850020  47.0543530   5.2312230
  47.6292240  47.2602910   5.9085650  47.3479460  46.2931930   4.7783080
  48.2582100  45.0575880   3.9489680  48.9004330  44.3569040   4.0621850
  48.7831450  45.8374320   3.7686570  50.0319720  45.8570780   7.1525740
  50.3675960  46.4437470   7.8303660  49.1120060  45.7263490   7.3823530
  37.5823120  33.6465960   7.9349150  36.8681640  33.8462880   8.5401760
  38.0018160  32.8705530   8.3063950  37.8695710  47.6346220   8.9215680
  37.9786830  46.6940960   8.7811070  37.2176270  47.9000970   8.2729410
  45.8608300  45.9062110  10.3213800  45.5405170  45.1871350  10.8659490
  45.1866660  46.5817180  10.3949860  49.0761900  36.1388270   5.6850600
  49.4442720  35.3183480   6.0130170  48.2160100  36.1990160   6.1006250
  46.0363890  38.7927860   5.9088570  46.5349140  39.2673680   6.5740420
  46.1786840  37.8691380   6.1158600  53.2430750  35.0095820   6.7516960
  52.7404350  35.7501220   7.0910770  54.0587410  35.3979820   6.4353750
  53.5378340  47.4237850   1.8732580  53.6625760  48.2469020   2.3456390
  54.4043900  47.2128580   1.5256730  40.0154150  48.7015130  10.7335290
  40.8166880  49.0227180  11.1470690  39.5005970  48.3410710  11.4555200
  48.8518780  44.8095000  10.6810700  48.2456940  44.8326600   9.9406450
  48.5472890  44.0778040  11.2177950  50.2819150  48.5375290   9.2920110
  51.2340900  48.4533310   9.2420350  50.1347370  49.2017000   9.9653900
  37.7351960  41.1888590   9.6771340  38.2390980  40.6095870  10.2487570
  36.9959380  41.4728820  10.2147710  44.7889900  42.5959580   9.2106860
  44.0235570  43.1644580   9.1261530  44.9705860  42.3035790   8.3175090
  51.9313250  44.3264910   9.7681880  52.6722720  44.6640670   9.2649340
  51.1685930  44.4956970   9.2151650  39.7675040  39.3318180  10.5721410
  39.8080380  39.0332050  11.4806640  40.6220540  39.7325790  10.4128930
  41.7080850  37.9110280   8.5395900  41.1777310  37.4201230   7.9119240
  42.3768920  38.3394480   8.0053830  50.6058910  42.3779740   8.3037090
  51.0199930  42.5324820   9.1527510  49.6709910  42.5034960   8.4662870
  51.0781080  39.7175900  10.3076240  51.6601850  38.9628220  10.2196720
  51.2542850  40.2483340   9.5307720  42.1953150  34.8772650   8.6193190
  42.1010020  34.2593400   7.8944060  41.6150540  35.6038940   8.3923100
  44.9614590  33.4345890   5.6520580  44.5131890  33.4570150   4.8066130
  44.3279790  33.0364910   6.2490880  45.3674140  42.3300220   6.2733020
  45.7862250  43.1732950   6.1009260  44.4482770  42.4672260   6.0439800
  47.7038040  40.0616400   7.6570860  47.8234250  39.4657540   8.3965700
  48.5632040  40.0986090   7.2372160  50.0425940  40.6153590   6.2333370
  49.5161160  41.1396210   5.6298510  50.3857280  41.2480980   6.8643100
  43.2181560  48.6353230   7.3890750  42.6802650  49.3599290   7.0699450
  43.4715520  48.1583570   6.5988090  44.4706810  36.6037750   8.9146680
  45.0606500  36.2953600   9.6024500  43.6527050  36.1317500   9.0706580
  49.2900240  36.2203560   9.1479700  48.6015760  35.5585100   9.0829690
  50.0106260  35.7741830   9.5928160  46.0743770  49.8704440   7.6477400
  46.0002470  50.7739580   7.9549770  45.1722610  49.5516340   7.6199470
  37.9661270  48.0649620   3.6892650  37.5292260  48.2450420   4.5216800
  38.5338950  48.8224240   3.5474370  53.6023450  47.5666620   7.9769960
  53.0025440  47.6259180   7.2333880  53.7317350  46.6271600   8.1066810
  52.2875090  44.2918600   6.0746120  51.4734930  44.7215760   6.3371910
  52.6949290  44.9037010   5.4615170  38.8361630  40.9622420   4.5884870
  39.2034670  40.8749820   5.4680890  38.2672450  40.1988970   4.4891730
  53.6365490  39.4306800   7.6015340  53.4051580  39.2019550   6.7013290
  53.8970040  40.3506350   7.5560230  38.3877630  37.8731510   8.4943290
  37.4933680  37.8398270   8.8337000  38.9275180  38.0718300   9.2594540
  52.0753560  34.6563230  10.3795040  52.9523740  34.6646630  10.7629040
  52.0874400  33.9194070   9.7687390  53.7006550  38.5932640   4.7902610
  52.7509260  38.5596180   4.9047600  53.8819560  39.5032750   4.5552380
  38.8917340  32.1479840   2.8426510  39.5393530  31.5977220   2.4021670
  39.3119180  32.4022990   3.6642320  52.7869680  32.3421200   6.1996150
  53.4241900  32.9555340   6.5655340  52.9344570  32.3781860   5.2545380
  38.6449340  32.3035510   5.5851830  38.2964160  32.7599330   6.3510010
  38.3137040  31.4092640   5.6674260  40.2513710  45.4755110   9.7505020
  40.2083340  45.1048020  10.6319480  40.3824720  46.4132680   9.8906840
  43.9519740  47.0314700   5.3514740  43.7111100  47.2989260   4.4645260
  44.8922380  47.2020430   5.4065600  46.1574160  33.4947390   9.1071250
  46.0963050  34.0869220   9.8566660  47.0974540  33.3873350   8.9621510
  48.7948720  33.1517450   8.7463540  49.4089130  33.4696740   8.0844620
  49.3398280  32.6666040   9.3659400  55.2123900  49.0509080   6.1525380
  54.7182180  49.4477950   5.4352510  54.6037190  48.4258290   6.5462660
  39.3169980  31.8311710   8.8602600  39.8652970  31.6499760   8.0968710
  39.3825290  31.0405820   9.3958910  40.0901740  48.4217360   6.8702800
  39.4962060  48.2902060   7.6092840  40.0825580  47.5855500   6.4044900
  49.5356760  31.7149590   5.0732830  48.6616600  32.0484700   4.8705760
  49.4267510  31.2422770   5.8984700  50.4428740  33.9220460   6.4574550
  50.1142100  33.1072220   6.0776280  51.3911040  33.8790270   6.3340240
  52.8963350  49.6932500   3.4312120  52.4366320  50.4448310   3.0570140
  52.2675810  48.9738970   3.3726920  39.7213970  45.7875740   5.8210840
  38.9948030  45.1681030   5.7536790  39.7823120  46.1816350   4.9508920
  43.3259070  48.0020740   2.6060250  43.8424090  47.3908100   2.0808510
  43.9756450  48.5049520   3.0971260  46.0654570  48.8929230   3.4329230
  46.3532380  48.6383530   2.5562240  46.5777790  48.3406590   4.0234800
  47.2831580  32.6319430   4.0125740  46.5003370  33.1064930   4.2922500
  46.9894510  31.7274260   3.9038920  46.1326930  49.8145330  10.7997430
  47.0594240  49.5789600  10.8433390  46.1177360  50.6417330  10.3183460
  43.3190540  32.4790080  10.5639310  43.0374810  32.9823680   9.8000130
  43.7010240  31.6811830  10.1981440  49.9206000  31.8943660  11.1419780
  49.8071450  32.2138270  12.0371300  50.7375740  32.2956170  10.8457060
  52.7004490  49.0415190  10.6238470  53.4929810  48.5464420  10.4164430
  52.9937640  49.7205330  11.2314080  48.8264150  21.1392640  56.6028480
  48.7458200  20.2247250  56.3320190  48.4128570  21.6359710  55.8968190
  50.9789620  27.3231850  57.2636880  50.5171150  26.5519090  57.5924050
  51.7915170  27.3497920  57.7689330  39.3839970  18.1893360  53.1455900
  38.4956670  18.5309330  53.0435780  39.6681160  17.9893680  52.2536730
  47.2052930  29.6089860  56.8840870  46.5864370  30.0647360  56.3135310
  48.0604710  29.7641320  56.4830570  41.5601360  16.7724860  54.1794280
  41.6668110  17.6728590  54.4863040  40.6493720  16.7242830  53.8888930
  51.2120470  15.8949670  55.6505180  52.0330090  15.4046240  55.6930660
  51.2454550  16.4847330  56.4037020  48.0716280  24.4929100  54.2772780
  47.4533550  24.9578550  53.7135500  48.5839530  25.1856580  54.6942290
  37.4399480  25.1785630  51.6512410  37.0627460  25.6672730  50.9197310
  37.6972550  25.8510910  52.2818940  45.0488410  13.5802020  57.1097920
  45.3563390  13.0248910  56.3933420  44.1189110  13.7146480  56.9270910
  51.8948890  26.0185530  54.4895550  51.7845220  25.0759860  54.6144970
  51.8917140  26.3801170  55.3758310  47.4369170  21.6450850  53.8458040
  46.5098450  21.5788230  54.0746510  47.5893990  22.5830980  53.7313280
  47.4238250  17.9167850  50.8425200  46.4841920  18.0781810  50.9277660
  47.7421510  18.6353530  50.2961190  51.4666460  23.2071150  54.3493290
  50.8478880  22.8690700  53.7019590  51.4490910  22.5630910  55.0572480
  43.0425810  22.1715590  56.6277770  42.6382810  21.4592840  56.1323670
  43.1288930  21.8268830  57.5165810  49.6431160  22.4457960  51.3566040
  50.0824440  21.6080390  51.2103860  50.3559580  23.0787360  51.4430180
  47.7526540  27.3854030  55.3247280  48.1922450  28.1278360  54.9102670
  47.6913430  27.6280600  56.2486240  53.2248300  13.7000770  49.6707080
  52.9120960  13.7927600  50.5706150  53.9860770  14.2781800  49.6204510
  39.7430440  21.0660570  54.1284420  39.6228040  21.7922660  53.5165690
  39.4331330  20.2963480  53.6512330  38.6263440  25.9375900  56.3459240
  38.2191520  26.0790490  55.4912840  39.5176450  25.6536060  56.1430450
  50.4196720  30.3723150  52.6810290  50.2597860  30.0826090  53.5792120
  50.2543430  29.5963280  52.1455520  42.8985100  30.1521680  54.4581910
  42.7227580  29.2357220  54.2449710  42.0440840  30.5108970  54.6979710
  50.1222850  27.8810710  51.2408290  49.4288010  27.8788000  50.5810570
  50.8645710  27.4570030  50.8102460  49.6872780  29.5073420  55.3156780
  50.1429730  28.7262800  55.6295400  50.0265300  30.2180240  55.8597960
  42.2094100  14.4095640  57.5108090  41.7662250  15.1905180  57.1792610
  42.7679090  14.7325530  58.2179030  45.3252920  14.0306340  52.3913920
  44.7007100  14.0266210  53.1167230  45.2383040  13.1637300  51.9949890
  42.0008320  19.5329210  55.2389340  41.7749240  19.3166380  56.1435960
  41.2200850  19.9657670  54.8935310  49.2306080  19.5392580  53.8379990
  48.6314970  20.2628380  53.6543610  49.7785690  19.4769360  53.0556440
  47.8370950  18.1756120  55.8683270  48.2300520  18.4928320  55.0551960
  48.1987800  17.2968000  55.9827790  37.0605350  18.7077040  49.3016190
  36.9780020  19.6507800  49.4431180  36.7088410  18.5651950  48.4228540
  44.8603480  17.4416070  58.3686540  44.8639540  17.0006020  57.5191080
  45.7554600  17.7633400  58.4758360  40.7105860  17.3242560  57.3280750
  40.3705910  17.8017790  58.0847800  39.9483180  16.8707680  56.9681850
  44.9223630  18.4428150  51.3593300  45.0436450  18.4014630  52.3079120
  44.5372140  19.3052300  51.2040030  43.9345130  20.7529290  50.7576600
  43.3662030  20.3047540  50.1312510  44.6434130  21.1122070  50.2241750
  38.0251940  16.2461540  56.2445420  37.7398860  15.8817210  57.0824040
  37.9630800  15.5142000  55.6308560  41.4792610  24.7487480  53.0303010
  40.7054870  24.2085100  52.8701730  42.2087240  24.2294090  52.6920770
  47.6990530  15.1390800  52.9658790  46.8855140  14.6403970  52.8904100
  47.5052480  15.9789050  52.5495140  50.4138920  19.5110450  51.2620950
  51.3018540  19.8227680  51.0872290  50.3844010  18.6382700  50.8701530
  41.5230010  24.4167860  56.6681820  42.0408680  23.6136120  56.6138710
  41.0714030  24.3547000  57.5098650  46.4099510  25.6834140  51.9409120
  46.7515210  26.4276370  51.4452440  45.5812220  25.9965260  52.3033950
  52.6853190  20.8222290  50.7300810  52.6016910  21.2536510  49.8797250
  53.4047380  21.2820640  51.1627630  53.7140440  27.6764550  53.4582940
  53.0716600  27.0220170  53.7326660  53.3271100  28.0819640  52.6823610
  49.2926920  25.0049980  57.3054630  49.6450740  24.4078110  56.6456000
  48.4089250  24.6794210  57.4762880  45.3790200  25.7647670  54.7125040
  46.0661330  26.3116880  55.0932630  44.5922620  26.3088400  54.7474650
  37.5182600  21.3820490  50.2042120  38.3877450  21.6645290  50.4878040
  37.0272920  22.1956360  50.0890930  44.6817410  22.7693700  54.3250400
  45.1380190  23.5798950  54.5510590  44.3305620  22.4516840  55.1568890
  40.5829190  13.1131350  54.7972920  40.4543820  13.1049250  55.7457840
  39.7591210  13.4514440  54.4463930  52.1037820  26.5681010  49.9959290
  51.8775400  25.8511450  50.5883930  51.7134020  26.3193450  49.1581040
  37.8853850  30.5947870  50.7703750  38.2451490  31.1937210  50.1161020
  37.7446190  31.1407760  51.5438780  51.6854070  24.4852950  51.6573450
  51.3975770  24.9465640  52.4451330  52.4806240  24.0250720  51.9257670
  43.9022470  27.9779070  51.5877420  43.8932570  28.7108760  50.9721930
  42.9820830  27.7310650  51.6804380  39.5029110  23.1993960  52.3324180
  38.8957060  23.9392860  52.3419480  39.9778460  23.2893320  51.5062380
  52.4423930  16.3201720  52.8168630  51.8137090  16.4247390  52.1026860
  51.9475850  16.5398500  53.6062510  46.8882070  28.0407310  50.2502610
  46.9894050  27.8371300  49.3204590  45.9883810  27.7865590  50.4550390
  44.4107960  18.5987670  54.2326510  43.7024110  19.0674010  54.6740120
  44.6952440  17.9409680  54.8671700  48.4423390  15.3238330  55.6722300
  48.3191170  15.3424460  54.7231810  49.3907950  15.3717270  55.7920700
  45.5300180  30.5593630  54.9450280  45.7841680  30.5215020  54.0229650
  44.5812660  30.4326960  54.9378530  42.6142980  16.9072750  51.6077220
  43.4633510  17.3442900  51.5417410  42.2474250  17.2193010  52.4349280
  51.5352760  21.4785510  56.5208790  50.5942900  21.4935740  56.6956480
  51.8496830  20.6921470  56.9669090  41.5134400  23.1605110  50.0812750
  42.2797670  23.0486470  50.6438180  41.5909090  22.4643080  49.4289520
  40.2081160  20.5930180  50.7645640  40.2884750  19.6457690  50.8763040
  41.1000910  20.9237060  50.8706300  41.0095870  30.7425570  57.8680180
  41.7458350  30.1941030  58.1388750  41.3936790  31.6081580  57.7286170
  37.8941350  26.8099140  53.7421690  36.9681130  27.0520280  53.7327100
  38.3597780  27.6373400  53.6206440  44.1198180  29.9155880  49.6905750
  44.9126790  30.2044710  49.2387540  43.6002530  29.4848050  49.0118230
  53.1728350  29.1426010  51.1142490  52.8869860  28.7291150  50.2996670
  52.9747900  30.0713720  50.9943010  44.6375580  25.1359290  49.5548100
  44.5326220  24.5211640  50.2809480  44.4699800  24.6125180  48.7711110
  47.8778310  24.1979320  50.1590090  47.3288410  24.6448620  50.8032830
  48.4997570  23.6928570  50.6827760  43.5453430  23.1570240  52.0555390
  43.9669850  22.9910110  52.8986780  43.6704270  22.3470470  51.5610530
  46.0581070  22.1807850  49.3032490  46.5786730  21.4656870  48.9373640
  46.7049470  22.8193720  49.6033000  42.4412330  19.2303470  49.0013550
  42.2401390  18.3670830  49.3626890  42.2704380  19.1436830  48.0635150
  49.9200640  14.0411700  51.5300430  50.2002930  13.1979600  51.8859850
  49.1466370  14.2734810  52.0439180  41.2395130  16.3304090  48.9891430
  41.5421030  16.3371520  48.0810580  41.9789720  15.9801950  49.4859090
  44.4580060  15.2738710  49.9747630  44.1102060  14.5962700  49.3950080
  44.6592830  14.8128220  50.7891020  46.6229100  30.2619460  51.5934230
  47.5179890  30.6004430  51.6152990  46.6546730  29.5398870  50.9658510
  40.2625260  25.6346510  49.8221230  40.7000130  26.1776180  50.4778810
  40.7472990  24.8093460  49.8317570  37.4771060  28.4235540  57.2741490
  37.8074070  27.5556600  57.0420130  37.9062060  28.6294060  58.1046450
  42.0732980  26.7544550  54.9343460  41.7728520  26.6309520  55.8347370
  41.9670470  25.8953140  54.5259190  54.8424900  26.5340950  49.6370140
  54.0117860  26.6017600  50.1077370  55.0196730  27.4245070  49.3337000
  54.2981360  23.2788430  52.1404340  55.0600270  23.8485080  52.2464030
  54.3135730  22.7115630  52.9112650  37.7985700  21.8026360  56.3712000
  37.1434540  21.5338000  55.7271700  38.6363650  21.6930840  55.9213980
  55.3041330  24.1338530  56.9846270  55.6750160  23.3505850  56.5782240
  55.9443260  24.8227630  56.8063570  54.3500530  23.5722800  49.2976860
  54.6249370  24.4801680  49.1696080  54.1611270  23.5085330  50.2338850
  50.7476140  16.5967650  50.5930490  51.1661020  16.4098630  49.7527150
  50.4412200  15.7446700  50.9033420  54.2465870  21.5091790  54.2906290
  53.8709470  20.7419720  53.8587580  53.5168990  21.8914490  54.7781220
  37.0123780  19.0125290  52.3137330  36.1087860  19.2755490  52.1388990
  37.4964400  19.2836460  51.5337290  53.5216830  19.7349280  57.5913530
  54.0454310  19.2411930  56.9603700  54.1076250  19.8699640  58.3361100
  39.5550990  18.0690830  50.2231710  40.2642690  17.6474050  49.7378990
  38.8390930  18.1366060  49.5915060  39.2025150  14.1230160  49.2634360
  39.9253280  14.6639100  49.5815580  39.4749670  13.8493580  48.3875900
  53.0116800  18.9922630  53.5305940  53.5075920  18.7593500  54.3154820
  52.8132870  18.1534470  53.1143580  54.4403960  17.6283580  56.0643620
  54.3303240  17.4739620  57.0025890  55.2011550  17.1004520  55.8219030
  55.3294230  15.4591500  49.3049760  56.2543540  15.3272680  49.0968050
  55.3070020  15.5384320  50.2586210  55.4032720  16.2302160  51.9306470
  54.6084220  16.1647280  52.4599380  55.6076000  17.1652800  51.9191820
  52.3451140  30.2693710  55.9244860  52.9410210  29.9478280  55.2479280
  52.6029290  29.7965530  56.7158130  51.8352650  14.5599040  58.3805300
  52.2760740  14.5044140  57.5326900  51.5660240  15.4757050  58.4515480
  53.6991220  14.1914280  56.3914120  53.6379620  13.2475500  56.2445140
  54.4783250  14.2994370  56.9367580  38.0043970  30.3306640  55.3538070
  37.8366010  29.6977320  56.0519960  37.1378480  30.5366040  55.0032260
  38.6271990  14.1623420  52.8569930  39.3851350  14.2752300  52.2833960
  38.1649160  14.9992620  52.8113360  45.1685800  16.2762690  55.8472240
  44.3560310  15.9019580  55.5068120  45.6727440  15.5207770  56.1493430
  49.6710780  12.9405140  57.0855310  50.2740150  13.5125350  57.5603830
  48.9303770  13.5044580  56.8629210  52.8145380  13.3426700  52.3595590
  53.0096010  14.2410150  52.6263020  52.0275250  13.1113780  52.8528540
  39.6106670  29.0239870  52.7988210  39.0854290  29.4047900  52.0950170
  39.5351250  29.6490640  53.5197920  40.9997140  14.6887470  51.3971900
  41.5289900  13.9017270  51.2679850  41.6325460  15.3678660  51.6307430
  43.1934980  14.4262610  54.4517290  42.5637720  13.7249920  54.6187420
  42.6540120  15.1866740  54.2350450  54.3671990  30.5827410  54.1202150
  54.5424180  29.8965150  53.4763070  53.6693560  31.1074460  53.7278820
  42.2099640  30.9722250  51.6737460  42.9418460  30.6881530  51.1261350
  42.4693310  30.7335530  52.5636840  41.3714430  27.0886980  51.6783790
  40.7423310  27.5572080  52.2269620  41.4862260  26.2436200  52.1129980
  48.8264150  21.1392640  37.8284990  48.7458200  20.2247250  37.5576700
  48.4128570  21.6359710  37.1224700  46.9582190  22.9171660  39.7094260
  46.1824290  22.4372100  39.9992830  47.6095120  22.2377310  39.5350420
  40.9748020  23.2291470  40.5870020  40.1432900  22.9740180  40.9866530
  41.5829000  23.3002240  41.3227940  50.9789620  27.3231850  38.4893390
  50.5171150  26.5519090  38.8180560  51.7915170  27.3497920  38.9945840
  40.9549280  27.2631560  40.7828040  41.2577320  26.3729300  40.6038260
  41.6992870  27.8201780  40.5550290  39.3839970  18.1893360  34.3712410
  38.4956670  18.5309330  34.2692290  39.6681160  17.9893680  33.4793240
  37.3472980  20.7899010  40.2552110  37.9189090  20.0221210  40.2555750
  37.3474520  21.0887770  39.3458720  47.2052930  29.6089860  38.1097380
  46.5864370  30.0647360  37.5391820  48.0604710  29.7641320  37.7087080
  46.3991180  25.5928850  39.7164420  46.3299460  24.6518790  39.5553550
  47.1611040  25.6830260  40.2886990  38.5897850  16.1983370  42.0421040
  38.4100690  15.3009120  42.3223800  38.1877930  16.7455240  42.7167990
  47.4296350  18.3999230  39.9433350  47.8061170  17.5271110  39.8307020
  47.3315860  18.7357930  39.0523790  41.5601360  16.7724860  35.4050790
  41.6668110  17.6728590  35.7119550  40.6493720  16.7242830  35.1145440
  51.2120470  15.8949670  36.8761690  52.0330090  15.4046240  36.9187170
  51.2454550  16.4847330  37.6293530  39.2084520  18.6943870  40.6503380
  39.8894630  18.9582240  41.2690780  38.8932570  17.8544740  40.9841390
  43.4009090  19.7411230  39.7375970  43.9087310  20.2392200  40.3780990
  43.9322330  18.9646430  39.5615330  55.5020020  17.9116420  43.4405320
  54.7972190  18.2998130  42.9220430  55.7677940  18.6066710  44.0426250
  41.6845190  14.3809790  44.0039390  41.6863630  14.8982180  43.1985290
  40.8549500  13.9039970  43.9809320  48.0716280  24.4929100  35.5029290
  47.4533550  24.9578550  34.9392010  48.5839530  25.1856580  35.9198800
  42.9348040  24.0204970  42.1812890  42.6017420  24.6473890  42.8233960
  43.1114720  24.5466850  41.4014560  51.4481950  17.8350050  39.6489230
  50.7437520  18.1234940  40.2292340  51.8094110  18.6450160  39.2888790
  41.3660520  16.0919750  42.0109840  41.7077330  16.9361800  41.7163710
  40.4276330  16.2403490  42.1275180  42.1467140  25.9885770  43.9962070
  42.7641140  26.6636850  43.7146520  41.2860260  26.3973750  43.9049570
  53.0644730  27.4525180  41.9116710  52.3808250  28.1224290  41.9033380
  53.6039020  27.6505830  41.1461570  54.5168870  17.2804840  40.0398440
  53.5693780  17.3143820  40.1713870  54.8418860  18.0943790  40.4247800
  45.0488410  13.5802020  38.3354430  45.3563390  13.0248910  37.6189930
  44.1189110  13.7146480  38.1527420  50.6003470  29.2969310  40.6261890
  50.6130630  28.8931600  39.7584150  50.0478690  30.0716600  40.5223320
  51.8948890  26.0185530  35.7152060  51.7845220  25.0759860  35.8401480
  51.8917140  26.3801170  36.6014820  49.9988910  24.1999150  41.9544500
  50.4157700  23.9859260  41.1197960  50.7228730  24.4571940  42.5253120
  47.4369170  21.6450850  35.0714550  46.5098450  21.5788230  35.3003020
  47.5893990  22.5830980  34.9569790  47.4238250  17.9167850  32.0681710
  46.4841920  18.0781810  32.1534170  47.7421510  18.6353530  31.5217700
  53.9451010  22.5986370  42.0460740  53.1169640  22.6679460  41.5710870
  54.5401490  23.1840680  41.5776570  51.4666460  23.2071150  35.5749800
  50.8478880  22.8690700  34.9276100  51.4490910  22.5630910  36.2828990
  50.9093020  19.3855690  42.9915610  50.4964200  20.2109400  43.2455600
  50.1768970  18.8000730  42.7991970  43.0425810  22.1715590  37.8534280
  42.6382810  21.4592840  37.3580180  43.1288930  21.8268830  38.7422320
  43.5107510  25.8583150  40.0173490  43.2135800  25.2528620  39.3381270
  44.4607330  25.8960460  39.9062850  41.7554430  18.9458800  41.6333320
  42.3069020  19.0554140  40.8586570  42.2697940  19.3196400  42.3488550
  51.5993120  29.4315020  43.6796590  51.1223680  30.2387210  43.4869200
  50.9154910  28.7793350  43.8322800  42.6025940  25.5964840  46.6681290
  41.7054470  25.8204810  46.9154690  42.6278810  25.7199780  45.7192690
  49.6431160  22.4457960  32.5822550  50.0824440  21.6080390  32.4360370
  50.3559580  23.0787360  32.6686690  41.4297160  22.4678160  45.2438660
  41.2904930  23.3400960  45.6126060  40.5478520  22.1250970  45.0986600
  47.7526540  27.3854030  36.5503790  48.1922450  28.1278360  36.1359180
  47.6913430  27.6280600  37.4742750  43.2277510  28.4099860  47.4523810
  43.1992940  28.8142810  46.5852240  43.0642480  27.4810220  47.2895410
  53.2248300  13.7000770  30.8963590  52.9120960  13.7927600  31.7962660
  53.9860770  14.2781800  30.8461020  39.7430440  21.0660570  35.3540930
  39.6228040  21.7922660  34.7422200  39.4331330  20.2963480  34.8768840
  55.1792330  29.1926960  48.7487980  55.6552050  29.6709850  49.4277060
  55.7999490  29.1244450  48.0233480  37.3815810  24.2375710  41.1609570
  37.4596230  24.3724480  40.2165290  37.9957490  23.5291600  41.3537690
  38.6263440  25.9375900  37.5715750  38.2191520  26.0790490  36.7169350
  39.5176450  25.6536060  37.3686960  54.5825580  26.3839810  45.9087990
  54.7088640  26.1451690  44.9905170  54.6246960  25.5524350  46.3810070
  48.4442320  30.0867810  44.4782800  48.9586990  29.9975820  45.2805230
  47.6011400  30.4327510  44.7710710  49.6872780  29.5073420  36.5413290
  50.1429730  28.7262800  36.8551910  50.0265300  30.2180240  37.0854470
  54.4349590  18.4372270  46.8737730  53.8193860  18.9451940  46.3453190
  54.1146010  17.5370600  46.8163670  37.4375330  25.2789880  43.7004030
  37.6006370  24.8095240  42.8823400  37.9027780  24.7713440  44.3652870
  42.2094100  14.4095640  38.7364600  41.7662250  15.1905180  38.4049120
  42.7679090  14.7325530  39.4435540  46.4963910  17.2764160  44.3399920
  46.0343280  17.4847180  45.1519860  46.0942020  16.4623510  44.0370590
  51.4968420  18.4973110  45.4696580  50.6462010  18.1978860  45.7905650
  51.3370210  18.7415120  44.5580400  48.5918130  19.9974860  47.5695370
  48.9171540  19.1638610  47.2297600  49.3798460  20.5203380  47.7173700
  45.3252920  14.0306340  33.6170430  44.7007100  14.0266210  34.3423740
  45.2383040  13.1637300  33.2206400  44.2470000  14.9542970  40.5954200
  44.5442330  15.8605800  40.5146220  44.7955560  14.4661750  39.9813770
  42.0008320  19.5329210  36.4645850  41.7749240  19.3166380  37.3692470
  41.2200850  19.9657670  36.1191820  49.2306080  19.5392580  35.0636500
  48.6314970  20.2628380  34.8800120  49.7785690  19.4769360  34.2812950
  44.4407530  20.4314790  47.1306120  44.3451130  19.4909520  46.9806520
  45.2839510  20.6529860  46.7354190  47.8370950  18.1756120  37.0939780
  48.2300520  18.4928320  36.2808470  48.1987800  17.2968000  37.2084300
  39.5718070  16.8428460  45.2839900  39.1781460  17.6903670  45.4912680
  38.8836470  16.2054830  45.4748540  46.1463120  16.9263430  48.3536640
  45.4561440  16.7335630  48.9882730  46.8895420  17.2098070  48.8860940
  36.8735120  14.7656920  39.3169980  36.5848170  15.3359780  40.0294960
  37.6180880  14.2861370  39.6801210  37.0605350  18.7077040  30.5272700
  36.9780020  19.6507800  30.6687690  36.7088410  18.5651950  29.6485050
  48.4226090  20.7661870  41.1890560  47.6907210  21.2748680  41.5380660
  48.0250430  19.9491850  40.8879340  44.8603480  17.4416070  39.5943050
  44.8639540  17.0006020  38.7447590  45.7554600  17.7633400  39.7014870
  40.7105860  17.3242560  38.5537260  40.3705910  17.8017790  39.3104310
  39.9483180  16.8707680  38.1938360  44.9223630  18.4428150  32.5849810
  45.0436450  18.4014630  33.5335630  44.5372140  19.3052300  32.4296540
  48.8852000  16.2195550  40.6013500  48.9024740  16.6704200  41.4455350
  48.6367580  15.3201190  40.8146940  43.9345130  20.7529290  31.9833110
  43.3662030  20.3047540  31.3569020  44.6434130  21.1122070  31.4498260
  52.3122750  13.6327730  46.4399880  52.6368520  12.9017390  46.9657860
  52.3479260  13.3141370  45.5380870  39.0114310  24.6541310  45.8599840
  38.6269100  24.0134980  46.4582800  39.3226500  25.3577430  46.4294570
  45.1611450  21.5017850  41.3408460  45.5281580  21.0276420  42.0869800
  44.9716510  22.3759420  41.6816800  38.0251940  16.2461540  37.4701930
  37.7398860  15.8817210  38.3080550  37.9630800  15.5142000  36.8565070
  42.9510820  20.5426490  43.6592670  42.6467890  21.4218470  43.8843030
  43.9057280  20.6026280  43.6950110  52.2380590  23.7452840  40.0485910
  52.9579710  24.2408130  39.6582020  52.0362410  23.0670730  39.4039780
  47.6990530  15.1390800  34.1915300  46.8855140  14.6403970  34.1160610
  47.5052480  15.9789050  33.7751650  47.6199390  23.8161900  45.9354910
  47.5536700  22.8957570  45.6812500  46.9904530  23.9137340  46.6499550
  50.4138920  19.5110450  32.4877460  51.3018540  19.8227680  32.3128800
  50.3844010  18.6382700  32.0958040  41.5230010  24.4167860  37.8938330
  42.0408680  23.6136120  37.8395220  41.0714030  24.3547000  38.7355160
  39.0074550  21.3829230  44.8064030  38.6489490  22.0483080  45.3937370
  38.7129110  20.5512780  45.1776650  42.2087670  21.8413470  47.6903580
  41.9087810  21.9870650  46.7931400  42.9798910  21.2818760  47.5976970
  47.5516120  26.6382470  45.6858710  47.5660660  25.7063430  45.4677620
  46.8441220  26.7242230  46.3248480  52.6853190  20.8222290  31.9557320
  52.6016910  21.2536510  31.1053760  53.4047380  21.2820640  32.3884140
  53.7627330  23.2789810  45.0327290  53.0375520  23.8718590  44.8356680
  54.2902790  23.2713350  44.2340660  53.7140440  27.6764550  34.6839450
  53.0716600  27.0220170  34.9583170  53.3271100  28.0819640  33.9080120
  49.2926920  25.0049980  38.5311140  49.6450740  24.4078110  37.8712510
  48.4089250  24.6794210  38.7019390  44.6817410  22.7693700  35.5506910
  45.1380190  23.5798950  35.7767100  44.3305620  22.4516840  36.3825400
  46.9850020  28.2800040  42.7799210  47.6292240  28.4859420  43.4572630
  47.3479460  27.5188440  42.3270060  40.5829190  13.1131350  36.0229430
  40.4543820  13.1049250  36.9714350  39.7591210  13.4514440  35.6720440
  48.2582100  26.2832390  41.4976660  48.9004330  25.5825550  41.6108830
  48.7831450  27.0630830  41.3173550  52.1037820  26.5681010  31.2215800
  51.8775400  25.8511450  31.8140440  51.7134020  26.3193450  30.3837550
  50.0319720  27.0827290  44.7012720  50.3675960  27.6693980  45.3790640
  49.1120060  26.9520000  44.9310510  37.5823120  14.8722470  45.4836130
  36.8681640  15.0719390  46.0888740  38.0018160  14.0962040  45.8550930
  51.6854070  24.4852950  32.8829960  51.3975770  24.9465640  33.6707840
  52.4806240  24.0250720  33.1514180  37.8695710  28.8602730  46.4702660
  37.9786830  27.9197470  46.3298050  37.2176270  29.1257480  45.8216390
  45.8608300  27.1318620  47.8700780  45.5405170  26.4127860  48.4146470
  45.1866660  27.8073690  47.9436840  49.0761900  17.3644780  43.2337580
  49.4442720  16.5439990  43.5617150  48.2160100  17.4246670  43.6493230
  52.4423930  16.3201720  34.0425140  51.8137090  16.4247390  33.3283370
  51.9475850  16.5398500  34.8319020  44.4107960  18.5987670  35.4583020
  43.7024110  19.0674010  35.8996630  44.6952440  17.9409680  36.0928210
  46.0363890  20.0184370  43.4575550  46.5349140  20.4930190  44.1227400
  46.1786840  19.0947890  43.6645580  48.4423390  15.3238330  36.8978810
  48.3191170  15.3424460  35.9488320  49.3907950  15.3717270  37.0177210
  42.6142980  16.9072750  32.8333730  43.4633510  17.3442900  32.7673920
  42.2474250  17.2193010  33.6605790  53.2430750  16.2352330  44.3003940
  52.7404350  16.9757730  44.6397750  54.0587410  16.6236330  43.9840730
  51.5352760  21.4785510  37.7465300  50.5942900  21.4935740  37.9212990
  51.8496830  20.6921470  38.1925600  41.5134400  23.1605110  31.3069260
  42.2797670  23.0486470  31.8694690  41.5909090  22.4643080  30.6546030
  40.2081160  20.5930180  31.9902150  40.2884750  19.6457690  32.1019550
  41.1000910  20.9237060  32.0962810  53.5378340  28.6494360  39.4219560
  53.6625760  29.4725530  39.8943370  54.4043900  28.4385090  39.0743710
  41.0095870  30.7425570  39.0936690  41.7458350  30.1941030  39.3645260
  41.3936790  31.6081580  38.9542680  40.0154150  29.9271640  48.2822270
  40.8166880  30.2483690  48.6957670  39.5005970  29.5667220  49.0042180
  48.8518780  26.0351510  48.2297680  48.2456940  26.0583110  47.4893430
  48.5472890  25.3034550  48.7664930  50.2819150  29.7631800  46.8407090
  51.2340900  29.6789820  46.7907330  50.1347370  30.4273510  47.5140880
  37.7351960  22.4145100  47.2258320  38.2390980  21.8352380  47.7974550
  36.9959380  22.6985330  47.7634690  44.7889900  23.8216090  46.7593840
  44.0235570  24.3901090  46.6748510  44.9705860  23.5292300  45.8662070
  47.8778310  24.1979320  31.3846600  47.3288410  24.6448620  32.0289340
  48.4997570  23.6928570  31.9084270  51.9313250  25.5521420  47.3168860
  52.6722720  25.8897180  46.8136320  51.1685930  25.7213480  46.7638630
  39.7675040  20.5574690  48.1208390  39.8080380  20.2588560  49.0293620
  40.6220540  20.9582300  47.9615910  43.5453430  23.1570240  33.2811900
  43.9669850  22.9910110  34.1243290  43.6704270  22.3470470  32.7867040
  41.7080850  19.1366790  46.0882880  41.1777310  18.6457740  45.4606220
  42.3768920  19.5650990  45.5540810  46.0581070  22.1807850  30.5289000
  46.5786730  21.4656870  30.1630150  46.7049470  22.8193720  30.8289510
  50.6058910  23.6036250  45.8524070  51.0199930  23.7581330  46.7014490
  49.6709910  23.7291470  46.0149850  51.0781080  20.9432410  47.8563220
  51.6601850  20.1884730  47.7683700  51.2542850  21.4739850  47.0794700
  42.1953150  16.1029160  46.1680170  42.1010020  15.4849910  45.4431040
  41.6150540  16.8295450  45.9410080  44.9614590  14.6602400  43.2007560
  44.5131890  14.6826660  42.3553110  44.3279790  14.2621420  43.7977860
  45.3674140  23.5556730  43.8220000  45.7862250  24.3989460  43.6496240
  44.4482770  23.6928770  43.5926780  47.7038040  21.2872910  45.2057840
  47.8234250  20.6914050  45.9452680  48.5632040  21.3242600  44.7859140
  50.0425940  21.8410100  43.7820350  49.5161160  22.3652720  43.1785490
  50.3857280  22.4737490  44.4130080  42.4412330  19.2303470  30.2270060
  42.2401390  18.3670830  30.5883400  42.2704380  19.1436830  29.2891660
  43.2181560  29.8609740  44.9377730  42.6802650  30.5855800  44.6186430
  43.4715520  29.3840080  44.1475070  44.4706810  17.8294260  46.4633660
  45.0606500  17.5210110  47.1511480  43.6527050  17.3574010  46.6193560
  49.2900240  17.4460070  46.6966680  48.6015760  16.7841610  46.6316670
  50.0106260  16.9998340  47.1415140  49.9200640  14.0411700  32.7556940
  50.2002930  13.1979600  33.1116360  49.1466370  14.2734810  33.2695690
  41.2395130  16.3304090  30.2147940  41.5421030  16.3371520  29.3067090
  41.9789720  15.9801950  30.7115600  46.0743770  31.0960950  45.1964380
  46.0002470  31.9996090  45.5036750  45.1722610  30.7772850  45.1686450
  44.4580060  15.2738710  31.2004140  44.1102060  14.5962700  30.6206590
  44.6592830  14.8128220  32.0147530  37.4771060  28.4235540  38.4998000
  37.8074070  27.5556600  38.2676640  37.9062060  28.6294060  39.3302960
  37.9661270  29.2906130  41.2379630  37.5292260  29.4706930  42.0703780
  38.5338950  30.0480750  41.0961350  53.6023450  28.7923130  45.5256940
  53.0025440  28.8515690  44.7820860  53.7317350  27.8528110  45.6553790
  54.8424900  26.5340950  30.8626650  54.0117860  26.6017600  31.3333880
  55.0196730  27.4245070  30.5593510  54.2981360  23.2788430  33.3660850
  55.0600270  23.8485080  33.4720540  54.3135730  22.7115630  34.1369160
  37.7985700  21.8026360  37.5968510  37.1434540  21.5338000  36.9528210
  38.6363650  21.6930840  37.1470490  55.3041330  24.1338530  38.2102780
  55.6750160  23.3505850  37.8038750  55.9443260  24.8227630  38.0320080
  52.2875090  25.5175110  43.6233100  51.4734930  25.9472270  43.8858890
  52.6949290  26.1293520  43.0102150  54.3500530  23.5722800  30.5233370
  54.6249370  24.4801680  30.3952590  54.1611270  23.5085330  31.4595360
  50.7476140  16.5967650  31.8187000  51.1661020  16.4098630  30.9783660
  50.4412200  15.7446700  32.1289930  54.2465870  21.5091790  35.5162800
  53.8709470  20.7419720  35.0844090  53.5168990  21.8914490  36.0037730
  38.8361630  22.1878930  42.1371850  39.2034670  22.1006330  43.0167870
  38.2672450  21.4245480  42.0378710  53.6365490  20.6563310  45.1502320
  53.4051580  20.4276060  44.2500270  53.8970040  21.5762860  45.1047210
  38.3877630  19.0988020  46.0430270  37.4933680  19.0654780  46.3823980
  38.9275180  19.2974810  46.8081520  52.0753560  15.8819740  47.9282020
  52.9523740  15.8903140  48.3116020  52.0874400  15.1450580  47.3174370
  37.0123780  19.0125290  33.5393840  36.1087860  19.2755490  33.3645500
  37.4964400  19.2836460  32.7593800  53.5216830  19.7349280  38.8170040
  54.0454310  19.2411930  38.1860210  54.1076250  19.8699640  39.5617610
  53.7006550  19.8189150  42.3389590  52.7509260  19.7852690  42.4534580
  53.8819560  20.7289260  42.1039360  39.5550990  18.0690830  31.4488220
  40.2642690  17.6474050  30.9635500  38.8390930  18.1366060  30.8171570
  39.2025150  14.1230160  30.4890870  39.9253280  14.6639100  30.8072090
  39.4749670  13.8493580  29.6132410  53.0116800  18.9922630  34.7562450
  53.5075920  18.7593500  35.5411330  52.8132870  18.1534470  34.3400090
  38.8917340  13.3736350  40.3913490  39.5393530  12.8233730  39.9508650
  39.3119180  13.6279500  41.2129300  54.4403960  17.6283580  37.2900130
  54.3303240  17.4739620  38.2282400  55.2011550  17.1004520  37.0475540
  52.7869680  13.5677710  43.7483130  53.4241900  14.1811850  44.1142320
  52.9344570  13.6038370  42.8032360  55.3294230  15.4591500  30.5306270
  56.2543540  15.3272680  30.3224560  55.3070020  15.5384320  31.4842720
  55.4032720  16.2302160  33.1562980  54.6084220  16.1647280  33.6855890
  55.6076000  17.1652800  33.1448330  52.3451140  30.2693710  37.1501370
  52.9410210  29.9478280  36.4735790  52.6029290  29.7965530  37.9414640
  38.6449340  13.5292020  43.1338810  38.2964160  13.9855840  43.8996990
  38.3137040  12.6349150  43.2161240  40.2513710  26.7011620  47.2992000
  40.2083340  26.3304530  48.1806460  40.3824720  27.6389190  47.4393820
  43.9519740  28.2571210  42.9001720  43.7111100  28.5245770  42.0132240
  44.8922380  28.4276940  42.9552580  46.1574160  14.7203900  46.6558230
  46.0963050  15.3125730  47.4053640  47.0974540  14.6129860  46.5108490
  48.7948720  14.3773960  46.2950520  49.4089130  14.6953250  45.6331600
  49.3398280  13.8922550  46.9146380  55.2123900  30.2765590  43.7012360
  54.7182180  30.6734460  42.9839490  54.6037190  29.6514800  44.0949640
  39.3169980  13.0568220  46.4089580  39.8652970  12.8756270  45.6455690
  39.3825290  12.2662330  46.9445890  40.0901740  29.6473870  44.4189780
  39.4962060  29.5158570  45.1579820  40.0825580  28.8112010  43.9531880
  49.5356760  12.9406100  42.6219810  48.6616600  13.2741210  42.4192740
  49.4267510  12.4679280  43.4471680  50.4428740  15.1476970  44.0061530
  50.1142100  14.3328730  43.6263260  51.3911040  15.1046780  43.8827220
  52.8963350  30.9189010  40.9799100  52.4366320  31.6704820  40.6057120
  52.2675810  30.1995480  40.9213900  39.7213970  27.0132250  43.3697820
  38.9948030  26.3937540  43.3023770  39.7823120  27.4072860  42.4995900
  43.3259070  29.2277250  40.1547230  43.8424090  28.6164610  39.6295490
  43.9756450  29.7306030  40.6458240  46.0654570  30.1185740  40.9816210
  46.3532380  29.8640040  40.1049220  46.5777790  29.5663100  41.5721780
  47.2831580  13.8575940  41.5612720  46.5003370  14.3321440  41.8409480
  46.9894510  12.9530770  41.4525900  51.8352650  14.5599040  39.6061810
  52.2760740  14.5044140  38.7583410  51.5660240  15.4757050  39.6771990
  53.6991220  14.1914280  37.6170630  53.6379620  13.2475500  37.4701650
  54.4783250  14.2994370  38.1624090  38.0043970  30.3306640  36.5794580
  37.8366010  29.6977320  37.2776470  37.1378480  30.5366040  36.2288770
  38.6271990  14.1623420  34.0826440  39.3851350  14.2752300  33.5090470
  38.1649160  14.9992620  34.0369870  45.1685800  16.2762690  37.0728750
  44.3560310  15.9019580  36.7324630  45.6727440  15.5207770  37.3749940
  49.6710780  12.9405140  38.3111820  50.2740150  13.5125350  38.7860340
  48.9303770  13.5044580  38.0885720  52.8145380  13.3426700  33.5852100
  53.0096010  14.2410150  33.8519530  52.0275250  13.1113780  34.0785050
  40.9997140  14.6887470  32.6228410  41.5289900  13.9017270  32.4936360
  41.6325460  15.3678660  32.8563940  43.1934980  14.4262610  35.6773800
  42.5637720  13.7249920  35.8443930  42.6540120  15.1866740  35.4606960
  46.1326930  31.0401840  48.3484410  47.0594240  30.8046110  48.3920370
  46.1177360  31.8673840  47.8670440  54.3671990  30.5827410  35.3458660
  54.5424180  29.8965150  34.7019580  53.6693560  31.1074460  34.9535330
  43.3190540  13.7046590  48.1126290  43.0374810  14.2080190  47.3487110
  43.7010240  12.9068340  47.7468420  49.9206000  13.1200170  48.6906760
  49.8071450  13.4394780  49.5858280  50.7375740  13.5212680  48.3944040
  52.7004490  30.2671700  48.1725450  53.4929810  29.7720930  47.9651410
  52.9937640  30.9461840  48.7801060  48.8264150  21.1392640  19.0541500
  48.7458200  20.2247250  18.7833210  48.4128570  21.6359710  18.3481210
  46.9582190  22.9171660  20.9350770  46.1824290  22.4372100  21.2249340
  47.6095120  22.2377310  20.7606930  40.9748020  23.2291470  21.8126530
  40.1432900  22.9740180  22.2123040  41.5829000  23.3002240  22.5484450
  50.9789620  27.3231850  19.7149900  50.5171150  26.5519090  20.0437070
  51.7915170  27.3497920  20.2202350  40.9549280  27.2631560  22.0084550
  41.2577320  26.3729300  21.8294770  41.6992870  27.8201780  21.7806800
  39.3839970  18.1893360  15.5968920  38.4956670  18.5309330  15.4948800
  39.6681160  17.9893680  14.7049750  37.3472980  20.7899010  21.4808620
  37.9189090  20.0221210  21.4812260  37.3474520  21.0887770  20.5715230
  47.2052930  29.6089860  19.3353890  46.5864370  30.0647360  18.7648330
  48.0604710  29.7641320  18.9343590  46.3991180  25.5928850  20.9420930
  46.3299460  24.6518790  20.7810060  47.1611040  25.6830260  21.5143500
  38.5897850  16.1983370  23.2677550  38.4100690  15.3009120  23.5480310
  38.1877930  16.7455240  23.9424500  47.4296350  18.3999230  21.1689860
  47.8061170  17.5271110  21.0563530  47.3315860  18.7357930  20.2780300
  41.5601360  16.7724860  16.6307300  41.6668110  17.6728590  16.9376060
  40.6493720  16.7242830  16.3401950  51.2120470  15.8949670  18.1018200
  52.0330090  15.4046240  18.1443680  51.2454550  16.4847330  18.8550040
  39.2084520  18.6943870  21.8759890  39.8894630  18.9582240  22.4947290
  38.8932570  17.8544740  22.2097900  43.4009090  19.7411230  20.9632480
  43.9087310  20.2392200  21.6037500  43.9322330  18.9646430  20.7871840
  55.5020020  17.9116420  24.6661830  54.7972190  18.2998130  24.1476940
  55.7677940  18.6066710  25.2682760  41.6845190  14.3809790  25.2295900
  41.6863630  14.8982180  24.4241800  40.8549500  13.9039970  25.2065830
  48.0716280  24.4929100  16.7285800  47.4533550  24.9578550  16.1648520
  48.5839530  25.1856580  17.1455310  42.9348040  24.0204970  23.4069400
  42.6017420  24.6473890  24.0490470  43.1114720  24.5466850  22.6271070
  51.4481950  17.8350050  20.8745740  50.7437520  18.1234940  21.4548850
  51.8094110  18.6450160  20.5145300  41.3660520  16.0919750  23.2366350
  41.7077330  16.9361800  22.9420220  40.4276330  16.2403490  23.3531690
  42.1467140  25.9885770  25.2218580  42.7641140  26.6636850  24.9403030
  41.2860260  26.3973750  25.1306080  37.4399480  25.1785630  14.1025430
  37.0627460  25.6672730  13.3710330  37.6972550  25.8510910  14.7331960
  53.0644730  27.4525180  23.1373220  52.3808250  28.1224290  23.1289890
  53.6039020  27.6505830  22.3718080  54.5168870  17.2804840  21.2654950
  53.5693780  17.3143820  21.3970380  54.8418860  18.0943790  21.6504310
  45.0488410  13.5802020  19.5610940  45.3563390  13.0248910  18.8446440
  44.1189110  13.7146480  19.3783930  50.6003470  29.2969310  21.8518400
  50.6130630  28.8931600  20.9840660  50.0478690  30.0716600  21.7479830
  51.8948890  26.0185530  16.9408570  51.7845220  25.0759860  17.0657990
  51.8917140  26.3801170  17.8271330  49.9988910  24.1999150  23.1801010
  50.4157700  23.9859260  22.3454470  50.7228730  24.4571940  23.7509630
  47.4369170  21.6450850  16.2971060  46.5098450  21.5788230  16.5259530
  47.5893990  22.5830980  16.1826300  47.4238250  17.9167850  13.2938220
  46.4841920  18.0781810  13.3790680  47.7421510  18.6353530  12.7474210
  53.9451010  22.5986370  23.2717250  53.1169640  22.6679460  22.7967380
  54.5401490  23.1840680  22.8033080  51.4666460  23.2071150  16.8006310
  50.8478880  22.8690700  16.1532610  51.4490910  22.5630910  17.5085500
  50.9093020  19.3855690  24.2172120  50.4964200  20.2109400  24.4712110
  50.1768970  18.8000730  24.0248480  43.0425810  22.1715590  19.0790790
  42.6382810  21.4592840  18.5836690  43.1288930  21.8268830  19.9678830
  43.5107510  25.8583150  21.2430000  43.2135800  25.2528620  20.5637780
  44.4607330  25.8960460  21.1319360  41.7554430  18.9458800  22.8589830
  42.3069020  19.0554140  22.0843080  42.2697940  19.3196400  23.5745060
  49.6431160  22.4457960  13.8079060  50.0824440  21.6080390  13.6616880
  50.3559580  23.0787360  13.8943200  41.4297160  22.4678160  26.4695170
  41.2904930  23.3400960  26.8382570  40.5478520  22.1250970  26.3243110
  47.7526540  27.3854030  17.7760300  48.1922450  28.1278360  17.3615690
  47.6913430  27.6280600  18.6999260  53.2248300  13.7000770  12.1220100
  52.9120960  13.7927600  13.0219170  53.9860770  14.2781800  12.0717530
  39.7430440  21.0660570  16.5797440  39.6228040  21.7922660  15.9678710
  39.4331330  20.2963480  16.1025350  55.1792330  29.1926960  29.9744490
  55.6552050  29.6709850  30.6533570  55.7999490  29.1244450  29.2489990
  37.3815810  24.2375710  22.3866080  37.4596230  24.3724480  21.4421800
  37.9957490  23.5291600  22.5794200  38.6263440  25.9375900  18.7972260
  38.2191520  26.0790490  17.9425860  39.5176450  25.6536060  18.5943470
  54.5825580  26.3839810  27.1344500  54.7088640  26.1451690  26.2161680
  54.6246960  25.5524350  27.6066580  50.4196720  30.3723150  15.1323310
  50.2597860  30.0826090  16.0305140  50.2543430  29.5963280  14.5968540
  42.8985100  30.1521680  16.9094930  42.7227580  29.2357220  16.6962730
  42.0440840  30.5108970  17.1492730  50.1222850  27.8810710  13.6921310
  49.4288010  27.8788000  13.0323590  50.8645710  27.4570030  13.2615480
  49.6872780  29.5073420  17.7669800  50.1429730  28.7262800  18.0808420
  50.0265300  30.2180240  18.3110980  54.4349590  18.4372270  28.0994240
  53.8193860  18.9451940  27.5709700  54.1146010  17.5370600  28.0420180
  42.2094100  14.4095640  19.9621110  41.7662250  15.1905180  19.6305630
  42.7679090  14.7325530  20.6692050  46.4963910  17.2764160  25.5656430
  46.0343280  17.4847180  26.3776370  46.0942020  16.4623510  25.2627100
  51.4968420  18.4973110  26.6953090  50.6462010  18.1978860  27.0162160
  51.3370210  18.7415120  25.7836910  48.5918130  19.9974860  28.7951880
  48.9171540  19.1638610  28.4554110  49.3798460  20.5203380  28.9430210
  45.3252920  14.0306340  14.8426940  44.7007100  14.0266210  15.5680250
  45.2383040  13.1637300  14.4462910  44.2470000  14.9542970  21.8210710
  44.5442330  15.8605800  21.7402730  44.7955560  14.4661750  21.2070280
  42.0008320  19.5329210  17.6902360  41.7749240  19.3166380  18.5948980
  41.2200850  19.9657670  17.3448330  49.2306080  19.5392580  16.2893010
  48.6314970  20.2628380  16.1056630  49.7785690  19.4769360  15.5069460
  44.4407530  20.4314790  28.3562630  44.3451130  19.4909520  28.2063030
  45.2839510  20.6529860  27.9610700  47.8370950  18.1756120  18.3196290
  48.2300520  18.4928320  17.5064980  48.1987800  17.2968000  18.4340810
  39.5718070  16.8428460  26.5096410  39.1781460  17.6903670  26.7169190
  38.8836470  16.2054830  26.7005050  46.1463120  16.9263430  29.5793150
  45.4561440  16.7335630  30.2139240  46.8895420  17.2098070  30.1117450
  36.8735120  14.7656920  20.5426490  36.5848170  15.3359780  21.2551470
  37.6180880  14.2861370  20.9057720  37.0605350  18.7077040  11.7529210
  36.9780020  19.6507800  11.8944200  36.7088410  18.5651950  10.8741560
  48.4226090  20.7661870  22.4147070  47.6907210  21.2748680  22.7637170
  48.0250430  19.9491850  22.1135850  44.8603480  17.4416070  20.8199560
  44.8639540  17.0006020  19.9704100  45.7554600  17.7633400  20.9271380
  40.7105860  17.3242560  19.7793770  40.3705910  17.8017790  20.5360820
  39.9483180  16.8707680  19.4194870  44.9223630  18.4428150  13.8106320
  45.0436450  18.4014630  14.7592140  44.5372140  19.3052300  13.6553050
  48.8852000  16.2195550  21.8270010  48.9024740  16.6704200  22.6711860
  48.6367580  15.3201190  22.0403450  43.9345130  20.7529290  13.2089620
  43.3662030  20.3047540  12.5825530  44.6434130  21.1122070  12.6754770
  52.3122750  13.6327730  27.6656390  52.6368520  12.9017390  28.1914370
  52.3479260  13.3141370  26.7637380  45.1611450  21.5017850  22.5664970
  45.5281580  21.0276420  23.3126310  44.9716510  22.3759420  22.9073310
  38.0251940  16.2461540  18.6958440  37.7398860  15.8817210  19.5337060
  37.9630800  15.5142000  18.0821580  42.9510820  20.5426490  24.8849180
  42.6467890  21.4218470  25.1099540  43.9057280  20.6026280  24.9206620
  41.4792610  24.7487480  15.4816030  40.7054870  24.2085100  15.3214750
  42.2087240  24.2294090  15.1433790  52.2380590  23.7452840  21.2742420
  52.9579710  24.2408130  20.8838530  52.0362410  23.0670730  20.6296290
  47.6990530  15.1390800  15.4171810  46.8855140  14.6403970  15.3417120
  47.5052480  15.9789050  15.0008160  47.6199390  23.8161900  27.1611420
  47.5536700  22.8957570  26.9069010  46.9904530  23.9137340  27.8756060
  50.4138920  19.5110450  13.7133970  51.3018540  19.8227680  13.5385310
  50.3844010  18.6382700  13.3214550  41.5230010  24.4167860  19.1194840
  42.0408680  23.6136120  19.0651730  41.0714030  24.3547000  19.9611670
  46.4099510  25.6834140  14.3922140  46.7515210  26.4276370  13.8965460
  45.5812220  25.9965260  14.7546970  39.0074550  21.3829230  26.0320540
  38.6489490  22.0483080  26.6193880  38.7129110  20.5512780  26.4033160
  42.2087670  21.8413470  28.9160090  41.9087810  21.9870650  28.0187910
  42.9798910  21.2818760  28.8233480  47.5516120  26.6382470  26.9115220
  47.5660660  25.7063430  26.6934130  46.8441220  26.7242230  27.5504990
  52.6853190  20.8222290  13.1813830  52.6016910  21.2536510  12.3310270
  53.4047380  21.2820640  13.6140650  53.7627330  23.2789810  26.2583800
  53.0375520  23.8718590  26.0613190  54.2902790  23.2713350  25.4597170
  53.7140440  27.6764550  15.9095960  53.0716600  27.0220170  16.1839680
  53.3271100  28.0819640  15.1336630  49.2926920  25.0049980  19.7567650
  49.6450740  24.4078110  19.0969020  48.4089250  24.6794210  19.9275900
  45.3790200  25.7647670  17.1638060  46.0661330  26.3116880  17.5445650
  44.5922620  26.3088400  17.1987670  37.5182600  21.3820490  12.6555140
  38.3877450  21.6645290  12.9391060  37.0272920  22.1956360  12.5403950
  44.6817410  22.7693700  16.7763420  45.1380190  23.5798950  17.0023610
  44.3305620  22.4516840  17.6081910  46.9850020  28.2800040  24.0055720
  47.6292240  28.4859420  24.6829140  47.3479460  27.5188440  23.5526570
  40.5829190  13.1131350  17.2485940  40.4543820  13.1049250  18.1970860
  39.7591210  13.4514440  16.8976950  48.2582100  26.2832390  22.7233170
  48.9004330  25.5825550  22.8365340  48.7831450  27.0630830  22.5430060
  52.1037820  26.5681010  12.4472310  51.8775400  25.8511450  13.0396950
  51.7134020  26.3193450  11.6094060  50.0319720  27.0827290  25.9269230
  50.3675960  27.6693980  26.6047150  49.1120060  26.9520000  26.1567020
  37.8853850  30.5947870  13.2216770  38.2451490  31.1937210  12.5674040
  37.7446190  31.1407760  13.9951800  37.5823120  14.8722470  26.7092640
  36.8681640  15.0719390  27.3145250  38.0018160  14.0962040  27.0807440
  51.6854070  24.4852950  14.1086470  51.3975770  24.9465640  14.8964350
  52.4806240  24.0250720  14.3770690  43.9022470  27.9779070  14.0390440
  43.8932570  28.7108760  13.4234950  42.9820830  27.7310650  14.1317400
  39.5029110  23.1993960  14.7837200  38.8957060  23.9392860  14.7932500
  39.9778460  23.2893320  13.9575400  49.0761900  17.3644780  24.4594090
  49.4442720  16.5439990  24.7873660  48.2160100  17.4246670  24.8749740
  52.4423930  16.3201720  15.2681650  51.8137090  16.4247390  14.5539880
  51.9475850  16.5398500  16.0575530  46.8882070  28.0407310  12.7015630
  46.9894050  27.8371300  11.7717610  45.9883810  27.7865590  12.9063410
  44.4107960  18.5987670  16.6839530  43.7024110  19.0674010  17.1253140
  44.6952440  17.9409680  17.3184720  46.0363890  20.0184370  24.6832060
  46.5349140  20.4930190  25.3483910  46.1786840  19.0947890  24.8902090
  48.4423390  15.3238330  18.1235320  48.3191170  15.3424460  17.1744830
  49.3907950  15.3717270  18.2433720  45.5300180  30.5593630  17.3963300
  45.7841680  30.5215020  16.4742670  44.5812660  30.4326960  17.3891550
  42.6142980  16.9072750  14.0590240  43.4633510  17.3442900  13.9930430
  42.2474250  17.2193010  14.8862300  53.2430750  16.2352330  25.5260450
  52.7404350  16.9757730  25.8654260  54.0587410  16.6236330  25.2097240
  51.5352760  21.4785510  18.9721810  50.5942900  21.4935740  19.1469500
  51.8496830  20.6921470  19.4182110  41.5134400  23.1605110  12.5325770
  42.2797670  23.0486470  13.0951200  41.5909090  22.4643080  11.8802540
  40.2081160  20.5930180  13.2158660  40.2884750  19.6457690  13.3276060
  41.1000910  20.9237060  13.3219320  53.5378340  28.6494360  20.6476070
  53.6625760  29.4725530  21.1199880  54.4043900  28.4385090  20.3000220
  41.0095870  30.7425570  20.3193200  41.7458350  30.1941030  20.5901770
  41.3936790  31.6081580  20.1799190  37.8941350  26.8099140  16.1934710
  36.9681130  27.0520280  16.1840120  38.3597780  27.6373400  16.0719460
  44.1198180  29.9155880  12.1418770  44.9126790  30.2044710  11.6900560
  43.6002530  29.4848050  11.4631250  48.8518780  26.0351510  29.4554190
  48.2456940  26.0583110  28.7149940  48.5472890  25.3034550  29.9921440
  53.1728350  29.1426010  13.5655510  52.8869860  28.7291150  12.7509690
  52.9747900  30.0713720  13.4456030  44.6375580  25.1359290  12.0061120
  44.5326220  24.5211640  12.7322500  44.4699800  24.6125180  11.2224130
  44.7889900  23.8216090  27.9850350  44.0235570  24.3901090  27.9005020
  44.9705860  23.5292300  27.0918580  47.8778310  24.1979320  12.6103110
  47.3288410  24.6448620  13.2545850  48.4997570  23.6928570  13.1340780
  51.9313250  25.5521420  28.5425370  52.6722720  25.8897180  28.0392830
  51.1685930  25.7213480  27.9895140  39.7675040  20.5574690  29.3464900
  39.8080380  20.2588560  30.2550130  40.6220540  20.9582300  29.1872420
  43.5453430  23.1570240  14.5068410  43.9669850  22.9910110  15.3499800
  43.6704270  22.3470470  14.0123550  41.7080850  19.1366790  27.3139390
  41.1777310  18.6457740  26.6862730  42.3768920  19.5650990  26.7797320
  46.0581070  22.1807850  11.7545510  46.5786730  21.4656870  11.3886660
  46.7049470  22.8193720  12.0546020  50.6058910  23.6036250  27.0780580
  51.0199930  23.7581330  27.9271000  49.6709910  23.7291470  27.2406360
  51.0781080  20.9432410  29.0819730  51.6601850  20.1884730  28.9940210
  51.2542850  21.4739850  28.3051210  42.1953150  16.1029160  27.3936680
  42.1010020  15.4849910  26.6687550  41.6150540  16.8295450  27.1666590
  44.9614590  14.6602400  24.4264070  44.5131890  14.6826660  23.5809620
  44.3279790  14.2621420  25.0234370  45.3674140  23.5556730  25.0476510
  45.7862250  24.3989460  24.8752750  44.4482770  23.6928770  24.8183290
  47.7038040  21.2872910  26.4314350  47.8234250  20.6914050  27.1709190
  48.5632040  21.3242600  26.0115650  50.0425940  21.8410100  25.0076860
  49.5161160  22.3652720  24.4042000  50.3857280  22.4737490  25.6386590
  42.4412330  19.2303470  11.4526570  42.2401390  18.3670830  11.8139910
  42.2704380  19.1436830  10.5148170  44.4706810  17.8294260  27.6890170
  45.0606500  17.5210110  28.3767990  43.6527050  17.3574010  27.8450070
  49.2900240  17.4460070  27.9223190  48.6015760  16.7841610  27.8573180
  50.0106260  16.9998340  28.3671650  49.9200640  14.0411700  13.9813450
  50.2002930  13.1979600  14.3372870  49.1466370  14.2734810  14.4952200
  41.2395130  16.3304090  11.4404450  41.5421030  16.3371520  10.5323600
  41.9789720  15.9801950  11.9372110  44.4580060  15.2738710  12.4260650
  44.1102060  14.5962700  11.8463100  44.6592830  14.8128220  13.2404040
  46.6229100  30.2619460  14.0447250  47.5179890  30.6004430  14.0666010
  46.6546730  29.5398870  13.4171530  40.2625260  25.6346510  12.2734250
  40.7000130  26.1776180  12.9291830  40.7472990  24.8093460  12.2830590
  37.4771060  28.4235540  19.7254510  37.8074070  27.5556600  19.4933150
  37.9062060  28.6294060  20.5559470  42.0732980  26.7544550  17.3856480
  41.7728520  26.6309520  18.2860390  41.9670470  25.8953140  16.9772210
  37.9661270  29.2906130  22.4636140  37.5292260  29.4706930  23.2960290
  38.5338950  30.0480750  22.3217860  53.6023450  28.7923130  26.7513450
  53.0025440  28.8515690  26.0077370  53.7317350  27.8528110  26.8810300
  54.8424900  26.5340950  12.0883160  54.0117860  26.6017600  12.5590390
  55.0196730  27.4245070  11.7850020  54.2981360  23.2788430  14.5917360
  55.0600270  23.8485080  14.6977050  54.3135730  22.7115630  15.3625670
  37.7985700  21.8026360  18.8225020  37.1434540  21.5338000  18.1784720
  38.6363650  21.6930840  18.3727000  55.3041330  24.1338530  19.4359290
  55.6750160  23.3505850  19.0295260  55.9443260  24.8227630  19.2576590
  52.2875090  25.5175110  24.8489610  51.4734930  25.9472270  25.1115400
  52.6949290  26.1293520  24.2358660  54.3500530  23.5722800  11.7489880
  54.6249370  24.4801680  11.6209100  54.1611270  23.5085330  12.6851870
  50.7476140  16.5967650  13.0443510  51.1661020  16.4098630  12.2040170
  50.4412200  15.7446700  13.3546440  54.2465870  21.5091790  16.7419310
  53.8709470  20.7419720  16.3100600  53.5168990  21.8914490  17.2294240
  38.8361630  22.1878930  23.3628360  39.2034670  22.1006330  24.2424380
  38.2672450  21.4245480  23.2635220  53.6365490  20.6563310  26.3758830
  53.4051580  20.4276060  25.4756780  53.8970040  21.5762860  26.3303720
  38.3877630  19.0988020  27.2686780  37.4933680  19.0654780  27.6080490
  38.9275180  19.2974810  28.0338030  52.0753560  15.8819740  29.1538530
  52.9523740  15.8903140  29.5372530  52.0874400  15.1450580  28.5430880
  37.0123780  19.0125290  14.7650350  36.1087860  19.2755490  14.5902010
  37.4964400  19.2836460  13.9850310  53.5216830  19.7349280  20.0426550
  54.0454310  19.2411930  19.4116720  54.1076250  19.8699640  20.7874120
  53.7006550  19.8189150  23.5646100  52.7509260  19.7852690  23.6791090
  53.8819560  20.7289260  23.3295870  39.5550990  18.0690830  12.6744730
  40.2642690  17.6474050  12.1892010  38.8390930  18.1366060  12.0428080
  39.2025150  14.1230160  11.7147380  39.9253280  14.6639100  12.0328600
  39.4749670  13.8493580  10.8388920  53.0116800  18.9922630  15.9818960
  53.5075920  18.7593500  16.7667840  52.8132870  18.1534470  15.5656600
  38.8917340  13.3736350  21.6170000  39.5393530  12.8233730  21.1765160
  39.3119180  13.6279500  22.4385810  54.4403960  17.6283580  18.5156640
  54.3303240  17.4739620  19.4538910  55.2011550  17.1004520  18.2732050
  52.7869680  13.5677710  24.9739640  53.4241900  14.1811850  25.3398830
  52.9344570  13.6038370  24.0288870  55.3294230  15.4591500  11.7562780
  56.2543540  15.3272680  11.5481070  55.3070020  15.5384320  12.7099230
  55.4032720  16.2302160  14.3819490  54.6084220  16.1647280  14.9112400
  55.6076000  17.1652800  14.3704840  52.3451140  30.2693710  18.3757880
  52.9410210  29.9478280  17.6992300  52.6029290  29.7965530  19.1671150
  38.6449340  13.5292020  24.3595320  38.2964160  13.9855840  25.1253500
  38.3137040  12.6349150  24.4417750  46.1574160  14.7203900  27.8814740
  46.0963050  15.3125730  28.6310150  47.0974540  14.6129860  27.7365000
  48.7948720  14.3773960  27.5207030  49.4089130  14.6953250  26.8588110
  49.3398280  13.8922550  28.1402890  55.2123900  30.2765590  24.9268870
  54.7182180  30.6734460  24.2096000  54.6037190  29.6514800  25.3206150
  39.3169980  13.0568220  27.6346090  39.8652970  12.8756270  26.8712200
  39.3825290  12.2662330  28.1702400  49.5356760  12.9406100  23.8476320
  48.6616600  13.2741210  23.6449250  49.4267510  12.4679280  24.6728190
  50.4428740  15.1476970  25.2318040  50.1142100  14.3328730  24.8519770
  51.3911040  15.1046780  25.1083730  52.8963350  30.9189010  22.2055610
  52.4366320  31.6704820  21.8313630  52.2675810  30.1995480  22.1470410
  43.3259070  29.2277250  21.3803740  43.8424090  28.6164610  20.8552000
  43.9756450  29.7306030  21.8714750  46.0654570  30.1185740  22.2072720
  46.3532380  29.8640040  21.3305730  46.5777790  29.5663100  22.7978290
  47.2831580  13.8575940  22.7869230  46.5003370  14.3321440  23.0665990
  46.9894510  12.9530770  22.6782410  51.8352650  14.5599040  20.8318320
  52.2760740  14.5044140  19.9839920  51.5660240  15.4757050  20.9028500
  53.6991220  14.1914280  18.8427140  53.6379620  13.2475500  18.6958160
  54.4783250  14.2994370  19.3880600  38.0043970  30.3306640  17.8051090
  37.8366010  29.6977320  18.5032980  37.1378480  30.5366040  17.4545280
  38.6271990  14.1623420  15.3082950  39.3851350  14.2752300  14.7346980
  38.1649160  14.9992620  15.2626380  45.1685800  16.2762690  18.2985260
  44.3560310  15.9019580  17.9581140  45.6727440  15.5207770  18.6006450
  49.6710780  12.9405140  19.5368330  50.2740150  13.5125350  20.0116850
  48.9303770  13.5044580  19.3142230  52.8145380  13.3426700  14.8108610
  53.0096010  14.2410150  15.0776040  52.0275250  13.1113780  15.3041560
  39.6106670  29.0239870  15.2501230  39.0854290  29.4047900  14.5463190
  39.5351250  29.6490640  15.9710940  40.9997140  14.6887470  13.8484920
  41.5289900  13.9017270  13.7192870  41.6325460  15.3678660  14.0820450
  43.1934980  14.4262610  16.9030310  42.5637720  13.7249920  17.0700440
  42.6540120  15.1866740  16.6863470  54.3671990  30.5827410  16.5715170
  54.5424180  29.8965150  15.9276090  53.6693560  31.1074460  16.1791840
  43.3190540  13.7046590  29.3382800  43.0374810  14.2080190  28.5743620
  43.7010240  12.9068340  28.9724930  42.2099640  30.9722250  14.1250480
  42.9418460  30.6881530  13.5774370  42.4693310  30.7335530  15.0149860
  41.3714430  27.0886980  14.1296810  40.7423310  27.5572080  14.6782640
  41.4862260  26.2436200  14.5643000  49.9206000  13.1200170  29.9163270
  49.8071450  13.4394780  30.8114790  50.7375740  13.5212680  29.6200550
  46.9582190  22.9171660   2.1607280  46.1824290  22.4372100   2.4505850
  47.6095120  22.2377310   1.9863440  40.9748020  23.2291470   3.0383040
  40.1432900  22.9740180   3.4379550  41.5829000  23.3002240   3.7740960
  40.9549280  27.2631560   3.2341060  41.2577320  26.3729300   3.0551280
  41.6992870  27.8201780   3.0063310  37.3472980  20.7899010   2.7065130
  37.9189090  20.0221210   2.7068770  37.3474520  21.0887770   1.7971740
  46.3991180  25.5928850   2.1677440  46.3299460  24.6518790   2.0066570
  47.1611040  25.6830260   2.7400010  38.5897850  16.1983370   4.4934060
  38.4100690  15.3009120   4.7736820  38.1877930  16.7455240   5.1681010
  47.4296350  18.3999230   2.3946370  47.8061170  17.5271110   2.2820040
  47.3315860  18.7357930   1.5036810  39.2084520  18.6943870   3.1016400
  39.8894630  18.9582240   3.7203800  38.8932570  17.8544740   3.4354410
  43.4009090  19.7411230   2.1888990  43.9087310  20.2392200   2.8294010
  43.9322330  18.9646430   2.0128350  55.5020020  17.9116420   5.8918340
  54.7972190  18.2998130   5.3733450  55.7677940  18.6066710   6.4939270
  41.6845190  14.3809790   6.4552410  41.6863630  14.8982180   5.6498310
  40.8549500  13.9039970   6.4322340  42.9348040  24.0204970   4.6325910
  42.6017420  24.6473890   5.2746980  43.1114720  24.5466850   3.8527580
  51.4481950  17.8350050   2.1002250  50.7437520  18.1234940   2.6805360
  51.8094110  18.6450160   1.7401810  41.3660520  16.0919750   4.4622860
  41.7077330  16.9361800   4.1676730  40.4276330  16.2403490   4.5788200
  42.1467140  25.9885770   6.4475090  42.7641140  26.6636850   6.1659540
  41.2860260  26.3973750   6.3562590  53.0644730  27.4525180   4.3629730
  52.3808250  28.1224290   4.3546400  53.6039020  27.6505830   3.5974590
  54.5168870  17.2804840   2.4911460  53.5693780  17.3143820   2.6226890
  54.8418860  18.0943790   2.8760820  50.6003470  29.2969310   3.0774910
  50.6130630  28.8931600   2.2097170  50.0478690  30.0716600   2.9736340
  49.9988910  24.1999150   4.4057520  50.4157700  23.9859260   3.5710980
  50.7228730  24.4571940   4.9766140  53.9451010  22.5986370   4.4973760
  53.1169640  22.6679460   4.0223890  54.5401490  23.1840680   4.0289590
  50.9093020  19.3855690   5.4428630  50.4964200  20.2109400   5.6968620
  50.1768970  18.8000730   5.2504990  43.5107510  25.8583150   2.4686510
  43.2135800  25.2528620   1.7894290  44.4607330  25.8960460   2.3575870
  41.7554430  18.9458800   4.0846340  42.3069020  19.0554140   3.3099590
  42.2697940  19.3196400   4.8001570  51.5993120  29.4315020   6.1309610
  51.1223680  30.2387210   5.9382220  50.9154910  28.7793350   6.2835820
  42.6025940  25.5964840   9.1194310  41.7054470  25.8204810   9.3667710
  42.6278810  25.7199780   8.1705710  41.4297160  22.4678160   7.6951680
  41.2904930  23.3400960   8.0639080  40.5478520  22.1250970   7.5499620
  43.2277510  28.4099860   9.9036830  43.1992940  28.8142810   9.0365260
  43.0642480  27.4810220   9.7408430  55.1792330  29.1926960  11.2001000
  55.6552050  29.6709850  11.8790080  55.7999490  29.1244450  10.4746500
  37.3815810  24.2375710   3.6122590  37.4596230  24.3724480   2.6678310
  37.9957490  23.5291600   3.8050710  54.5825580  26.3839810   8.3601010
  54.7088640  26.1451690   7.4418190  54.6246960  25.5524350   8.8323090
  48.4442320  30.0867810   6.9295820  48.9586990  29.9975820   7.7318250
  47.6011400  30.4327510   7.2223730  54.4349590  18.4372270   9.3250750
  53.8193860  18.9451940   8.7966210  54.1146010  17.5370600   9.2676690
  37.4375330  25.2789880   6.1517050  37.6006370  24.8095240   5.3336420
  37.9027780  24.7713440   6.8165890  46.4963910  17.2764160   6.7912940
  46.0343280  17.4847180   7.6032880  46.0942020  16.4623510   6.4883610
  51.4968420  18.4973110   7.9209600  50.6462010  18.1978860   8.2418670
  51.3370210  18.7415120   7.0093420  48.5918130  19.9974860  10.0208390
  48.9171540  19.1638610   9.6810620  49.3798460  20.5203380  10.1686720
  44.2470000  14.9542970   3.0467220  44.5442330  15.8605800   2.9659240
  44.7955560  14.4661750   2.4326790  44.4407530  20.4314790   9.5819140
  44.3451130  19.4909520   9.4319540  45.2839510  20.6529860   9.1867210
  39.5718070  16.8428460   7.7352920  39.1781460  17.6903670   7.9425700
  38.8836470  16.2054830   7.9261560  46.1463120  16.9263430  10.8049660
  45.4561440  16.7335630  11.4395750  46.8895420  17.2098070  11.3373960
  36.8735120  14.7656920   1.7683000  36.5848170  15.3359780   2.4807980
  37.6180880  14.2861370   2.1314230  48.4226090  20.7661870   3.6403580
  47.6907210  21.2748680   3.9893680  48.0250430  19.9491850   3.3392360
  48.8852000  16.2195550   3.0526520  48.9024740  16.6704200   3.8968370
  48.6367580  15.3201190   3.2659960  52.3122750  13.6327730   8.8912900
  52.6368520  12.9017390   9.4170880  52.3479260  13.3141370   7.9893890
  39.0114310  24.6541310   8.3112860  38.6269100  24.0134980   8.9095820
  39.3226500  25.3577430   8.8807590  45.1611450  21.5017850   3.7921480
  45.5281580  21.0276420   4.5382820  44.9716510  22.3759420   4.1329820
  42.9510820  20.5426490   6.1105690  42.6467890  21.4218470   6.3356050
  43.9057280  20.6026280   6.1463130  52.2380590  23.7452840   2.4998930
  52.9579710  24.2408130   2.1095040  52.0362410  23.0670730   1.8552800
  47.6199390  23.8161900   8.3867930  47.5536700  22.8957570   8.1325520
  46.9904530  23.9137340   9.1012570  39.0074550  21.3829230   7.2577050
  38.6489490  22.0483080   7.8450390  38.7129110  20.5512780   7.6289670
  42.2087670  21.8413470  10.1416600  41.9087810  21.9870650   9.2444420
  42.9798910  21.2818760  10.0489990  47.5516120  26.6382470   8.1371730
  47.5660660  25.7063430   7.9190640  46.8441220  26.7242230   8.7761500
  53.7627330  23.2789810   7.4840310  53.0375520  23.8718590   7.2869700
  54.2902790  23.2713350   6.6853680  46.9850020  28.2800040   5.2312230
  47.6292240  28.4859420   5.9085650  47.3479460  27.5188440   4.7783080
  48.2582100  26.2832390   3.9489680  48.9004330  25.5825550   4.0621850
  48.7831450  27.0630830   3.7686570  50.0319720  27.0827290   7.1525740
  50.3675960  27.6693980   7.8303660  49.1120060  26.9520000   7.3823530
  37.5823120  14.8722470   7.9349150  36.8681640  15.0719390   8.5401760
  38.0018160  14.0962040   8.3063950  37.8695710  28.8602730   8.9215680
  37.9786830  27.9197470   8.7811070  37.2176270  29.1257480   8.2729410
  45.8608300  27.1318620  10.3213800  45.5405170  26.4127860  10.8659490
  45.1866660  27.8073690  10.3949860  49.0761900  17.3644780   5.6850600
  49.4442720  16.5439990   6.0130170  48.2160100  17.4246670   6.1006250
  46.0363890  20.0184370   5.9088570  46.5349140  20.4930190   6.5740420
  46.1786840  19.0947890   6.1158600  53.2430750  16.2352330   6.7516960
  52.7404350  16.9757730   7.0910770  54.0587410  16.6236330   6.4353750
  53.5378340  28.6494360   1.8732580  53.6625760  29.4725530   2.3456390
  54.4043900  28.4385090   1.5256730  40.0154150  29.9271640  10.7335290
  40.8166880  30.2483690  11.1470690  39.5005970  29.5667220  11.4555200
  48.8518780  26.0351510  10.6810700  48.2456940  26.0583110   9.9406450
  48.5472890  25.3034550  11.2177950  50.2819150  29.7631800   9.2920110
  51.2340900  29.6789820   9.2420350  50.1347370  30.4273510   9.9653900
  37.7351960  22.4145100   9.6771340  38.2390980  21.8352380  10.2487570
  36.9959380  22.6985330  10.2147710  44.7889900  23.8216090   9.2106860
  44.0235570  24.3901090   9.1261530  44.9705860  23.5292300   8.3175090
  51.9313250  25.5521420   9.7681880  52.6722720  25.8897180   9.2649340
  51.1685930  25.7213480   9.2151650  39.7675040  20.5574690  10.5721410
  39.8080380  20.2588560  11.4806640  40.6220540  20.9582300  10.4128930
  41.7080850  19.1366790   8.5395900  41.1777310  18.6457740   7.9119240
  42.3768920  19.5650990   8.0053830  50.6058910  23.6036250   8.3037090
  51.0199930  23.7581330   9.1527510  49.6709910  23.7291470   8.4662870
  51.0781080  20.9432410  10.3076240  51.6601850  20.1884730  10.2196720
  51.2542850  21.4739850   9.5307720  42.1953150  16.1029160   8.6193190
  42.1010020  15.4849910   7.8944060  41.6150540  16.8295450   8.3923100
  44.9614590  14.6602400   5.6520580  44.5131890  14.6826660   4.8066130
  44.3279790  14.2621420   6.2490880  45.3674140  23.5556730   6.2733020
  45.7862250  24.3989460   6.1009260  44.4482770  23.6928770   6.0439800
  47.7038040  21.2872910   7.6570860  47.8234250  20.6914050   8.3965700
  48.5632040  21.3242600   7.2372160  50.0425940  21.8410100   6.2333370
  49.5161160  22.3652720   5.6298510  50.3857280  22.4737490   6.8643100
  43.2181560  29.8609740   7.3890750  42.6802650  30.5855800   7.0699450
  43.4715520  29.3840080   6.5988090  44.4706810  17.8294260   8.9146680
  45.0606500  17.5210110   9.6024500  43.6527050  17.3574010   9.0706580
  49.2900240  17.4460070   9.1479700  48.6015760  16.7841610   9.0829690
  50.0106260  16.9998340   9.5928160  46.0743770  31.0960950   7.6477400
  46.0002470  31.9996090   7.9549770  45.1722610  30.7772850   7.6199470
  37.9661270  29.2906130   3.6892650  37.5292260  29.4706930   4.5216800
  38.5338950  30.0480750   3.5474370  53.6023450  28.7923130   7.9769960
  53.0025440  28.8515690   7.2333880  53.7317350  27.8528110   8.1066810
  52.2875090  25.5175110   6.0746120  51.4734930  25.9472270   6.3371910
  52.6949290  26.1293520   5.4615170  38.8361630  22.1878930   4.5884870
  39.2034670  22.1006330   5.4680890  38.2672450  21.4245480   4.4891730
  53.6365490  20.6563310   7.6015340  53.4051580  20.4276060   6.7013290
  53.8970040  21.5762860   7.5560230  38.3877630  19.0988020   8.4943290
  37.4933680  19.0654780   8.8337000  38.9275180  19.2974810   9.2594540
  52.0753560  15.8819740  10.3795040  52.9523740  15.8903140  10.7629040
  52.0874400  15.1450580   9.7687390  53.7006550  19.8189150   4.7902610
  52.7509260  19.7852690   4.9047600  53.8819560  20.7289260   4.5552380
  38.8917340  13.3736350   2.8426510  39.5393530  12.8233730   2.4021670
  39.3119180  13.6279500   3.6642320  52.7869680  13.5677710   6.1996150
  53.4241900  14.1811850   6.5655340  52.9344570  13.6038370   5.2545380
  38.6449340  13.5292020   5.5851830  38.2964160  13.9855840   6.3510010
  38.3137040  12.6349150   5.6674260  40.2513710  26.7011620   9.7505020
  40.2083340  26.3304530  10.6319480  40.3824720  27.6389190   9.8906840
  43.9519740  28.2571210   5.3514740  43.7111100  28.5245770   4.4645260
  44.8922380  28.4276940   5.4065600  46.1574160  14.7203900   9.1071250
  46.0963050  15.3125730   9.8566660  47.0974540  14.6129860   8.9621510
  48.7948720  14.3773960   8.7463540  49.4089130  14.6953250   8.0844620
  49.3398280  13.8922550   9.3659400  55.2123900  30.2765590   6.1525380
  54.7182180  30.6734460   5.4352510  54.6037190  29.6514800   6.5462660
  39.3169980  13.0568220   8.8602600  39.8652970  12.8756270   8.0968710
  39.3825290  12.2662330   9.3958910  40.0901740  29.6473870   6.8702800
  39.4962060  29.5158570   7.6092840  40.0825580  28.8112010   6.4044900
  49.5356760  12.9406100   5.0732830  48.6616600  13.2741210   4.8705760
  49.4267510  12.4679280   5.8984700  50.4428740  15.1476970   6.4574550
  50.1142100  14.3328730   6.0776280  51.3911040  15.1046780   6.3340240
  52.8963350  30.9189010   3.4312120  52.4366320  31.6704820   3.0570140
  52.2675810  30.1995480   3.3726920  39.7213970  27.0132250   5.8210840
  38.9948030  26.3937540   5.7536790  39.7823120  27.4072860   4.9508920
  43.3259070  29.2277250   2.6060250  43.8424090  28.6164610   2.0808510
  43.9756450  29.7306030   3.0971260  46.0654570  30.1185740   3.4329230
  46.3532380  29.8640040   2.5562240  46.5777790  29.5663100   4.0234800
  47.2831580  13.8575940   4.0125740  46.5003370  14.3321440   4.2922500
  46.9894510  12.9530770   3.9038920  46.1326930  31.0401840  10.7997430
  47.0594240  30.8046110  10.8433390  46.1177360  31.8673840  10.3183460
  43.3190540  13.7046590  10.5639310  43.0374810  14.2080190   9.8000130
  43.7010240  12.9068340  10.1981440  49.9206000  13.1200170  11.1419780
  49.8071450  13.4394780  12.0371300  50.7375740  13.5212680  10.8457060
  52.7004490  30.2671700  10.6238470  53.4929810  29.7720930  10.4164430
  52.9937640  30.9461840  11.2314080  50.9789620   8.5488360  57.2636880
  50.5171150   7.7775600  57.5924050  51.7915170   8.5754430  57.7689330
  47.2052930  10.8346370  56.8840870  46.5864370  11.2903870  56.3135310
  48.0604710  10.9897830  56.4830570  48.0716280   5.7185610  54.2772780
  47.4533550   6.1835060  53.7135500  48.5839530   6.4113090  54.6942290
  37.4399480   6.4042140  51.6512410  37.0627460   6.8929240  50.9197310
  37.6972550   7.0767420  52.2818940  51.8948890   7.2442040  54.4895550
  51.7845220   6.3016370  54.6144970  51.8917140   7.6057680  55.3758310
  47.4369170   2.8707360  53.8458040  46.5098450   2.8044740  54.0746510
  47.5893990   3.8087490  53.7313280  51.4666460   4.4327660  54.3493290
  50.8478880   4.0947210  53.7019590  51.4490910   3.7887420  55.0572480
  43.0425810   3.3972100  56.6277770  42.6382810   2.6849350  56.1323670
  43.1288930   3.0525340  57.5165810  49.6431160   3.6714470  51.3566040
  50.0824440   2.8336900  51.2103860  50.3559580   4.3043870  51.4430180
  47.7526540   8.6110540  55.3247280  48.1922450   9.3534870  54.9102670
  47.6913430   8.8537110  56.2486240  39.7430440   2.2917080  54.1284420
  39.6228040   3.0179170  53.5165690  39.4331330   1.5219990  53.6512330
  38.6263440   7.1632410  56.3459240  38.2191520   7.3047000  55.4912840
  39.5176450   6.8792570  56.1430450  50.4196720  11.5979660  52.6810290
  50.2597860  11.3082600  53.5792120  50.2543430  10.8219790  52.1455520
  42.8985100  11.3778190  54.4581910  42.7227580  10.4613730  54.2449710
  42.0440840  11.7365480  54.6979710  50.1222850   9.1067220  51.2408290
  49.4288010   9.1044510  50.5810570  50.8645710   8.6826540  50.8102460
  49.6872780  10.7329930  55.3156780  50.1429730   9.9519310  55.6295400
  50.0265300  11.4436750  55.8597960  43.9345130   1.9785800  50.7576600
  43.3662030   1.5304050  50.1312510  44.6434130   2.3378580  50.2241750
  41.4792610   5.9743990  53.0303010  40.7054870   5.4341610  52.8701730
  42.2087240   5.4550600  52.6920770  41.5230010   5.6424370  56.6681820
  42.0408680   4.8392630  56.6138710  41.0714030   5.5803510  57.5098650
  46.4099510   6.9090650  51.9409120  46.7515210   7.6532880  51.4452440
  45.5812220   7.2221770  52.3033950  52.6853190   2.0478800  50.7300810
  52.6016910   2.4793020  49.8797250  53.4047380   2.5077150  51.1627630
  53.7140440   8.9021060  53.4582940  53.0716600   8.2476680  53.7326660
  53.3271100   9.3076150  52.6823610  49.2926920   6.2306490  57.3054630
  49.6450740   5.6334620  56.6456000  48.4089250   5.9050720  57.4762880
  45.3790200   6.9904180  54.7125040  46.0661330   7.5373390  55.0932630
  44.5922620   7.5344910  54.7474650  37.5182600   2.6077000  50.2042120
  38.3877450   2.8901800  50.4878040  37.0272920   3.4212870  50.0890930
  44.6817410   3.9950210  54.3250400  45.1380190   4.8055460  54.5510590
  44.3305620   3.6773350  55.1568890  52.1037820   7.7937520  49.9959290
  51.8775400   7.0767960  50.5883930  51.7134020   7.5449960  49.1581040
  37.8853850  11.8204380  50.7703750  38.2451490  12.4193720  50.1161020
  37.7446190  12.3664270  51.5438780  51.6854070   5.7109460  51.6573450
  51.3975770   6.1722150  52.4451330  52.4806240   5.2507230  51.9257670
  43.9022470   9.2035580  51.5877420  43.8932570   9.9365270  50.9721930
  42.9820830   8.9567160  51.6804380  39.5029110   4.4250470  52.3324180
  38.8957060   5.1649370  52.3419480  39.9778460   4.5149830  51.5062380
  46.8882070   9.2663820  50.2502610  46.9894050   9.0627810  49.3204590
  45.9883810   9.0122100  50.4550390  45.5300180  11.7850140  54.9450280
  45.7841680  11.7471530  54.0229650  44.5812660  11.6583470  54.9378530
  51.5352760   2.7042020  56.5208790  50.5942900   2.7192250  56.6956480
  51.8496830   1.9177980  56.9669090  41.5134400   4.3861620  50.0812750
  42.2797670   4.2742980  50.6438180  41.5909090   3.6899590  49.4289520
  41.0095870  11.9682080  57.8680180  41.7458350  11.4197540  58.1388750
  41.3936790  12.8338090  57.7286170  37.8941350   8.0355650  53.7421690
  36.9681130   8.2776790  53.7327100  38.3597780   8.8629910  53.6206440
  44.1198180  11.1412390  49.6905750  44.9126790  11.4301220  49.2387540
  43.6002530  10.7104560  49.0118230  53.1728350  10.3682520  51.1142490
  52.8869860   9.9547660  50.2996670  52.9747900  11.2970230  50.9943010
  44.6375580   6.3615800  49.5548100  44.5326220   5.7468150  50.2809480
  44.4699800   5.8381690  48.7711110  47.8778310   5.4235830  50.1590090
  47.3288410   5.8705130  50.8032830  48.4997570   4.9185080  50.6827760
  43.5453430   4.3826750  52.0555390  43.9669850   4.2166620  52.8986780
  43.6704270   3.5726980  51.5610530  46.0581070   3.4064360  49.3032490
  46.5786730   2.6913380  48.9373640  46.7049470   4.0450230  49.6033000
  46.6229100  11.4875970  51.5934230  47.5179890  11.8260940  51.6152990
  46.6546730  10.7655380  50.9658510  40.2625260   6.8603020  49.8221230
  40.7000130   7.4032690  50.4778810  40.7472990   6.0349970  49.8317570
  37.4771060   9.6492050  57.2741490  37.8074070   8.7813110  57.0420130
  37.9062060   9.8550570  58.1046450  42.0732980   7.9801060  54.9343460
  41.7728520   7.8566030  55.8347370  41.9670470   7.1209650  54.5259190
  54.8424900   7.7597460  49.6370140  54.0117860   7.8274110  50.1077370
  55.0196730   8.6501580  49.3337000  54.2981360   4.5044940  52.1404340
  55.0600270   5.0741590  52.2464030  54.3135730   3.9372140  52.9112650
  37.7985700   3.0282870  56.3712000  37.1434540   2.7594510  55.7271700
  38.6363650   2.9187350  55.9213980  55.3041330   5.3595040  56.9846270
  55.6750160   4.5762360  56.5782240  55.9443260   6.0484140  56.8063570
  54.3500530   4.7979310  49.2976860  54.6249370   5.7058190  49.1696080
  54.1611270   4.7341840  50.2338850  54.2465870   2.7348300  54.2906290
  53.8709470   1.9676230  53.8587580  53.5168990   3.1171000  54.7781220
  52.3451140  11.4950220  55.9244860  52.9410210  11.1734790  55.2479280
  52.6029290  11.0222040  56.7158130  38.0043970  11.5563150  55.3538070
  37.8366010  10.9233830  56.0519960  37.1378480  11.7622550  55.0032260
  39.6106670  10.2496380  52.7988210  39.0854290  10.6304410  52.0950170
  39.5351250  10.8747150  53.5197920  54.3671990  11.8083920  54.1202150
  54.5424180  11.1221660  53.4763070  53.6693560  12.3330970  53.7278820
  42.2099640  12.1978760  51.6737460  42.9418460  11.9138040  51.1261350
  42.4693310  11.9592040  52.5636840  41.3714430   8.3143490  51.6783790
  40.7423310   8.7828590  52.2269620  41.4862260   7.4692710  52.1129980
  46.9582190   4.1428170  39.7094260  46.1824290   3.6628610  39.9992830
  47.6095120   3.4633820  39.5350420  40.9748020   4.4547980  40.5870020
  40.1432900   4.1996690  40.9866530  41.5829000   4.5258750  41.3227940
  50.9789620   8.5488360  38.4893390  50.5171150   7.7775600  38.8180560
  51.7915170   8.5754430  38.9945840  40.9549280   8.4888070  40.7828040
  41.2577320   7.5985810  40.6038260  41.6992870   9.0458290  40.5550290
  47.2052930  10.8346370  38.1097380  46.5864370  11.2903870  37.5391820
  48.0604710  10.9897830  37.7087080  46.3991180   6.8185360  39.7164420
  46.3299460   5.8775300  39.5553550  47.1611040   6.9086770  40.2886990
  48.0716280   5.7185610  35.5029290  47.4533550   6.1835060  34.9392010
  48.5839530   6.4113090  35.9198800  42.9348040   5.2461480  42.1812890
  42.6017420   5.8730400  42.8233960  43.1114720   5.7723360  41.4014560
  42.1467140   7.2142280  43.9962070  42.7641140   7.8893360  43.7146520
  41.2860260   7.6230260  43.9049570  37.4399480   6.4042140  32.8768920
  37.0627460   6.8929240  32.1453820  37.6972550   7.0767420  33.5075450
  53.0644730   8.6781690  41.9116710  52.3808250   9.3480800  41.9033380
  53.6039020   8.8762340  41.1461570  50.6003470  10.5225820  40.6261890
  50.6130630  10.1188110  39.7584150  50.0478690  11.2973110  40.5223320
  51.8948890   7.2442040  35.7152060  51.7845220   6.3016370  35.8401480
  51.8917140   7.6057680  36.6014820  49.9988910   5.4255660  41.9544500
  50.4157700   5.2115770  41.1197960  50.7228730   5.6828450  42.5253120
  47.4369170   2.8707360  35.0714550  46.5098450   2.8044740  35.3003020
  47.5893990   3.8087490  34.9569790  53.9451010   3.8242880  42.0460740
  53.1169640   3.8935970  41.5710870  54.5401490   4.4097190  41.5776570
  51.4666460   4.4327660  35.5749800  50.8478880   4.0947210  34.9276100
  51.4490910   3.7887420  36.2828990  43.0425810   3.3972100  37.8534280
  42.6382810   2.6849350  37.3580180  43.1288930   3.0525340  38.7422320
  43.5107510   7.0839660  40.0173490  43.2135800   6.4785130  39.3381270
  44.4607330   7.1216970  39.9062850  51.5993120  10.6571530  43.6796590
  51.1223680  11.4643720  43.4869200  50.9154910  10.0049860  43.8322800
  42.6025940   6.8221350  46.6681290  41.7054470   7.0461320  46.9154690
  42.6278810   6.9456290  45.7192690  49.6431160   3.6714470  32.5822550
  50.0824440   2.8336900  32.4360370  50.3559580   4.3043870  32.6686690
  41.4297160   3.6934670  45.2438660  41.2904930   4.5657470  45.6126060
  40.5478520   3.3507480  45.0986600  47.7526540   8.6110540  36.5503790
  48.1922450   9.3534870  36.1359180  47.6913430   8.8537110  37.4742750
  43.2277510   9.6356370  47.4523810  43.1992940  10.0399320  46.5852240
  43.0642480   8.7066730  47.2895410  39.7430440   2.2917080  35.3540930
  39.6228040   3.0179170  34.7422200  39.4331330   1.5219990  34.8768840
  55.1792330  10.4183470  48.7487980  55.6552050  10.8966360  49.4277060
  55.7999490  10.3500960  48.0233480  37.3815810   5.4632220  41.1609570
  37.4596230   5.5980990  40.2165290  37.9957490   4.7548110  41.3537690
  38.6263440   7.1632410  37.5715750  38.2191520   7.3047000  36.7169350
  39.5176450   6.8792570  37.3686960  54.5825580   7.6096320  45.9087990
  54.7088640   7.3708200  44.9905170  54.6246960   6.7780860  46.3810070
  48.4442320  11.3124320  44.4782800  48.9586990  11.2232330  45.2805230
  47.6011400  11.6584020  44.7710710  50.4196720  11.5979660  33.9066800
  50.2597860  11.3082600  34.8048630  50.2543430  10.8219790  33.3712030
  42.8985100  11.3778190  35.6838420  42.7227580  10.4613730  35.4706220
  42.0440840  11.7365480  35.9236220  50.1222850   9.1067220  32.4664800
  49.4288010   9.1044510  31.8067080  50.8645710   8.6826540  32.0358970
  49.6872780  10.7329930  36.5413290  50.1429730   9.9519310  36.8551910
  50.0265300  11.4436750  37.0854470  37.4375330   6.5046390  43.7004030
  37.6006370   6.0351750  42.8823400  37.9027780   5.9969950  44.3652870
  43.9345130   1.9785800  31.9833110  43.3662030   1.5304050  31.3569020
  44.6434130   2.3378580  31.4498260  39.0114310   5.8797820  45.8599840
  38.6269100   5.2391490  46.4582800  39.3226500   6.5833940  46.4294570
  45.1611450   2.7274360  41.3408460  45.5281580   2.2532930  42.0869800
  44.9716510   3.6015930  41.6816800  42.9510820   1.7683000  43.6592670
  42.6467890   2.6474980  43.8843030  43.9057280   1.8282790  43.6950110
  41.4792610   5.9743990  34.2559520  40.7054870   5.4341610  34.0958240
  42.2087240   5.4550600  33.9177280  52.2380590   4.9709350  40.0485910
  52.9579710   5.4664640  39.6582020  52.0362410   4.2927240  39.4039780
  47.6199390   5.0418410  45.9354910  47.5536700   4.1214080  45.6812500
  46.9904530   5.1393850  46.6499550  41.5230010   5.6424370  37.8938330
  42.0408680   4.8392630  37.8395220  41.0714030   5.5803510  38.7355160
  46.4099510   6.9090650  33.1665630  46.7515210   7.6532880  32.6708950
  45.5812220   7.2221770  33.5290460  39.0074550   2.6085740  44.8064030
  38.6489490   3.2739590  45.3937370  38.7129110   1.7769290  45.1776650
  42.2087670   3.0669980  47.6903580  41.9087810   3.2127160  46.7931400
  42.9798910   2.5075270  47.5976970  47.5516120   7.8638980  45.6858710
  47.5660660   6.9319940  45.4677620  46.8441220   7.9498740  46.3248480
  52.6853190   2.0478800  31.9557320  52.6016910   2.4793020  31.1053760
  53.4047380   2.5077150  32.3884140  53.7627330   4.5046320  45.0327290
  53.0375520   5.0975100  44.8356680  54.2902790   4.4969860  44.2340660
  53.7140440   8.9021060  34.6839450  53.0716600   8.2476680  34.9583170
  53.3271100   9.3076150  33.9080120  49.2926920   6.2306490  38.5311140
  49.6450740   5.6334620  37.8712510  48.4089250   5.9050720  38.7019390
  45.3790200   6.9904180  35.9381550  46.0661330   7.5373390  36.3189140
  44.5922620   7.5344910  35.9731160  37.5182600   2.6077000  31.4298630
  38.3877450   2.8901800  31.7134550  37.0272920   3.4212870  31.3147440
  44.6817410   3.9950210  35.5506910  45.1380190   4.8055460  35.7767100
  44.3305620   3.6773350  36.3825400  46.9850020   9.5056550  42.7799210
  47.6292240   9.7115930  43.4572630  47.3479460   8.7444950  42.3270060
  48.2582100   7.5088900  41.4976660  48.9004330   6.8082060  41.6108830
  48.7831450   8.2887340  41.3173550  52.1037820   7.7937520  31.2215800
  51.8775400   7.0767960  31.8140440  51.7134020   7.5449960  30.3837550
  50.0319720   8.3083800  44.7012720  50.3675960   8.8950490  45.3790640
  49.1120060   8.1776510  44.9310510  37.8853850  11.8204380  31.9960260
  38.2451490  12.4193720  31.3417530  37.7446190  12.3664270  32.7695290
  51.6854070   5.7109460  32.8829960  51.3975770   6.1722150  33.6707840
  52.4806240   5.2507230  33.1514180  37.8695710  10.0859240  46.4702660
  37.9786830   9.1453980  46.3298050  37.2176270  10.3513990  45.8216390
  45.8608300   8.3575130  47.8700780  45.5405170   7.6384370  48.4146470
  45.1866660   9.0330200  47.9436840  43.9022470   9.2035580  32.8133930
  43.8932570   9.9365270  32.1978440  42.9820830   8.9567160  32.9060890
  39.5029110   4.4250470  33.5580690  38.8957060   5.1649370  33.5675990
  39.9778460   4.5149830  32.7318890  46.8882070   9.2663820  31.4759120
  46.9894050   9.0627810  30.5461100  45.9883810   9.0122100  31.6806900
  45.5300180  11.7850140  36.1706790  45.7841680  11.7471530  35.2486160
  44.5812660  11.6583470  36.1635040  51.5352760   2.7042020  37.7465300
  50.5942900   2.7192250  37.9212990  51.8496830   1.9177980  38.1925600
  41.5134400   4.3861620  31.3069260  42.2797670   4.2742980  31.8694690
  41.5909090   3.6899590  30.6546030  53.5378340   9.8750870  39.4219560
  53.6625760  10.6982040  39.8943370  54.4043900   9.6641600  39.0743710
  41.0095870  11.9682080  39.0936690  41.7458350  11.4197540  39.3645260
  41.3936790  12.8338090  38.9542680  37.8941350   8.0355650  34.9678200
  36.9681130   8.2776790  34.9583610  38.3597780   8.8629910  34.8462950
  40.0154150  11.1528150  48.2822270  40.8166880  11.4740200  48.6957670
  39.5005970  10.7923730  49.0042180  44.1198180  11.1412390  30.9162260
  44.9126790  11.4301220  30.4644050  43.6002530  10.7104560  30.2374740
  48.8518780   7.2608020  48.2297680  48.2456940   7.2839620  47.4893430
  48.5472890   6.5291060  48.7664930  50.2819150  10.9888310  46.8407090
  51.2340900  10.9046330  46.7907330  50.1347370  11.6530020  47.5140880
  53.1728350  10.3682520  32.3399000  52.8869860   9.9547660  31.5253180
  52.9747900  11.2970230  32.2199520  37.7351960   3.6401610  47.2258320
  38.2390980   3.0608890  47.7974550  36.9959380   3.9241840  47.7634690
  44.6375580   6.3615800  30.7804610  44.5326220   5.7468150  31.5065990
  44.4699800   5.8381690  29.9967620  44.7889900   5.0472600  46.7593840
  44.0235570   5.6157600  46.6748510  44.9705860   4.7548810  45.8662070
  47.8778310   5.4235830  31.3846600  47.3288410   5.8705130  32.0289340
  48.4997570   4.9185080  31.9084270  51.9313250   6.7777930  47.3168860
  52.6722720   7.1153690  46.8136320  51.1685930   6.9469990  46.7638630
  39.7675040   1.7831200  48.1208390  39.8080380   1.4845070  49.0293620
  40.6220540   2.1838810  47.9615910  43.5453430   4.3826750  33.2811900
  43.9669850   4.2166620  34.1243290  43.6704270   3.5726980  32.7867040
  46.0581070   3.4064360  30.5289000  46.5786730   2.6913380  30.1630150
  46.7049470   4.0450230  30.8289510  50.6058910   4.8292760  45.8524070
  51.0199930   4.9837840  46.7014490  49.6709910   4.9547980  46.0149850
  45.3674140   4.7813240  43.8220000  45.7862250   5.6245970  43.6496240
  44.4482770   4.9185280  43.5926780  47.7038040   2.5129420  45.2057840
  47.8234250   1.9170560  45.9452680  48.5632040   2.5499110  44.7859140
  50.0425940   3.0666610  43.7820350  49.5161160   3.5909230  43.1785490
  50.3857280   3.6994000  44.4130080  43.2181560  11.0866250  44.9377730
  42.6802650  11.8112310  44.6186430  43.4715520  10.6096590  44.1475070
  46.0743770  12.3217460  45.1964380  46.0002470  13.2252600  45.5036750
  45.1722610  12.0029360  45.1686450  46.6229100  11.4875970  32.8190740
  47.5179890  11.8260940  32.8409500  46.6546730  10.7655380  32.1915020
  40.2625260   6.8603020  31.0477740  40.7000130   7.4032690  31.7035320
  40.7472990   6.0349970  31.0574080  37.4771060   9.6492050  38.4998000
  37.8074070   8.7813110  38.2676640  37.9062060   9.8550570  39.3302960
  42.0732980   7.9801060  36.1599970  41.7728520   7.8566030  37.0603880
  41.9670470   7.1209650  35.7515700  37.9661270  10.5162640  41.2379630
  37.5292260  10.6963440  42.0703780  38.5338950  11.2737260  41.0961350
  53.6023450  10.0179640  45.5256940  53.0025440  10.0772200  44.7820860
  53.7317350   9.0784620  45.6553790  54.8424900   7.7597460  30.8626650
  54.0117860   7.8274110  31.3333880  55.0196730   8.6501580  30.5593510
  54.2981360   4.5044940  33.3660850  55.0600270   5.0741590  33.4720540
  54.3135730   3.9372140  34.1369160  37.7985700   3.0282870  37.5968510
  37.1434540   2.7594510  36.9528210  38.6363650   2.9187350  37.1470490
  55.3041330   5.3595040  38.2102780  55.6750160   4.5762360  37.8038750
  55.9443260   6.0484140  38.0320080  52.2875090   6.7431620  43.6233100
  51.4734930   7.1728780  43.8858890  52.6949290   7.3550030  43.0102150
  54.3500530   4.7979310  30.5233370  54.6249370   5.7058190  30.3952590
  54.1611270   4.7341840  31.4595360  54.2465870   2.7348300  35.5162800
  53.8709470   1.9676230  35.0844090  53.5168990   3.1171000  36.0037730
  38.8361630   3.4135440  42.1371850  39.2034670   3.3262840  43.0167870
  38.2672450   2.6501990  42.0378710  53.6365490   1.8819820  45.1502320
  53.4051580   1.6532570  44.2500270  53.8970040   2.8019370  45.1047210
  52.3451140  11.4950220  37.1501370  52.9410210  11.1734790  36.4735790
  52.6029290  11.0222040  37.9414640  40.2513710   7.9268130  47.2992000
  40.2083340   7.5561040  48.1806460  40.3824720   8.8645700  47.4393820
  43.9519740   9.4827720  42.9001720  43.7111100   9.7502280  42.0132240
  44.8922380   9.6533450  42.9552580  55.2123900  11.5022100  43.7012360
  54.7182180  11.8990970  42.9839490  54.6037190  10.8771310  44.0949640
  40.0901740  10.8730380  44.4189780  39.4962060  10.7415080  45.1579820
  40.0825580  10.0368520  43.9531880  52.8963350  12.1445520  40.9799100
  52.4366320  12.8961330  40.6057120  52.2675810  11.4251990  40.9213900
  39.7213970   8.2388760  43.3697820  38.9948030   7.6194050  43.3023770
  39.7823120   8.6329370  42.4995900  43.3259070  10.4533760  40.1547230
  43.8424090   9.8421120  39.6295490  43.9756450  10.9562540  40.6458240
  46.0654570  11.3442250  40.9816210  46.3532380  11.0896550  40.1049220
  46.5777790  10.7919610  41.5721780  38.0043970  11.5563150  36.5794580
  37.8366010  10.9233830  37.2776470  37.1378480  11.7622550  36.2288770
  39.6106670  10.2496380  34.0244720  39.0854290  10.6304410  33.3206680
  39.5351250  10.8747150  34.7454430  46.1326930  12.2658350  48.3484410
  47.0594240  12.0302620  48.3920370  46.1177360  13.0930350  47.8670440
  54.3671990  11.8083920  35.3458660  54.5424180  11.1221660  34.7019580
  53.6693560  12.3330970  34.9535330  42.2099640  12.1978760  32.8993970
  42.9418460  11.9138040  32.3517860  42.4693310  11.9592040  33.7893350
  41.3714430   8.3143490  32.9040300  40.7423310   8.7828590  33.4526130
  41.4862260   7.4692710  33.3386490  52.7004490  11.4928210  48.1725450
  53.4929810  10.9977440  47.9651410  52.9937640  12.1718350  48.7801060
  46.9582190   4.1428170  20.9350770  46.1824290   3.6628610  21.2249340
  47.6095120   3.4633820  20.7606930  40.9748020   4.4547980  21.8126530
  40.1432900   4.1996690  22.2123040  41.5829000   4.5258750  22.5484450
  50.9789620   8.5488360  19.7149900  50.5171150   7.7775600  20.0437070
  51.7915170   8.5754430  20.2202350  40.9549280   8.4888070  22.0084550
  41.2577320   7.5985810  21.8294770  41.6992870   9.0458290  21.7806800
  47.2052930  10.8346370  19.3353890  46.5864370  11.2903870  18.7648330
  48.0604710  10.9897830  18.9343590  46.3991180   6.8185360  20.9420930
  46.3299460   5.8775300  20.7810060  47.1611040   6.9086770  21.5143500
  48.0716280   5.7185610  16.7285800  47.4533550   6.1835060  16.1648520
  48.5839530   6.4113090  17.1455310  42.9348040   5.2461480  23.4069400
  42.6017420   5.8730400  24.0490470  43.1114720   5.7723360  22.6271070
  42.1467140   7.2142280  25.2218580  42.7641140   7.8893360  24.9403030
  41.2860260   7.6230260  25.1306080  37.4399480   6.4042140  14.1025430
  37.0627460   6.8929240  13.3710330  37.6972550   7.0767420  14.7331960
  53.0644730   8.6781690  23.1373220  52.3808250   9.3480800  23.1289890
  53.6039020   8.8762340  22.3718080  50.6003470  10.5225820  21.8518400
  50.6130630  10.1188110  20.9840660  50.0478690  11.2973110  21.7479830
  51.8948890   7.2442040  16.9408570  51.7845220   6.3016370  17.0657990
  51.8917140   7.6057680  17.8271330  49.9988910   5.4255660  23.1801010
  50.4157700   5.2115770  22.3454470  50.7228730   5.6828450  23.7509630
  47.4369170   2.8707360  16.2971060  46.5098450   2.8044740  16.5259530
  47.5893990   3.8087490  16.1826300  53.9451010   3.8242880  23.2717250
  53.1169640   3.8935970  22.7967380  54.5401490   4.4097190  22.8033080
  51.4666460   4.4327660  16.8006310  50.8478880   4.0947210  16.1532610
  51.4490910   3.7887420  17.5085500  43.0425810   3.3972100  19.0790790
  42.6382810   2.6849350  18.5836690  43.1288930   3.0525340  19.9678830
  43.5107510   7.0839660  21.2430000  43.2135800   6.4785130  20.5637780
  44.4607330   7.1216970  21.1319360  51.5993120  10.6571530  24.9053100
  51.1223680  11.4643720  24.7125710  50.9154910  10.0049860  25.0579310
  42.6025940   6.8221350  27.8937800  41.7054470   7.0461320  28.1411200
  42.6278810   6.9456290  26.9449200  49.6431160   3.6714470  13.8079060
  50.0824440   2.8336900  13.6616880  50.3559580   4.3043870  13.8943200
  41.4297160   3.6934670  26.4695170  41.2904930   4.5657470  26.8382570
  40.5478520   3.3507480  26.3243110  47.7526540   8.6110540  17.7760300
  48.1922450   9.3534870  17.3615690  47.6913430   8.8537110  18.6999260
  43.2277510   9.6356370  28.6780320  43.1992940  10.0399320  27.8108750
  43.0642480   8.7066730  28.5151920  39.7430440   2.2917080  16.5797440
  39.6228040   3.0179170  15.9678710  39.4331330   1.5219990  16.1025350
  55.1792330  10.4183470  29.9744490  55.6552050  10.8966360  30.6533570
  55.7999490  10.3500960  29.2489990  37.3815810   5.4632220  22.3866080
  37.4596230   5.5980990  21.4421800  37.9957490   4.7548110  22.5794200
  38.6263440   7.1632410  18.7972260  38.2191520   7.3047000  17.9425860
  39.5176450   6.8792570  18.5943470  54.5825580   7.6096320  27.1344500
  54.7088640   7.3708200  26.2161680  54.6246960   6.7780860  27.6066580
  48.4442320  11.3124320  25.7039310  48.9586990  11.2232330  26.5061740
  47.6011400  11.6584020  25.9967220  50.4196720  11.5979660  15.1323310
  50.2597860  11.3082600  16.0305140  50.2543430  10.8219790  14.5968540
  42.8985100  11.3778190  16.9094930  42.7227580  10.4613730  16.6962730
  42.0440840  11.7365480  17.1492730  50.1222850   9.1067220  13.6921310
  49.4288010   9.1044510  13.0323590  50.8645710   8.6826540  13.2615480
  49.6872780  10.7329930  17.7669800  50.1429730   9.9519310  18.0808420
  50.0265300  11.4436750  18.3110980  37.4375330   6.5046390  24.9260540
  37.6006370   6.0351750  24.1079910  37.9027780   5.9969950  25.5909380
  43.9345130   1.9785800  13.2089620  43.3662030   1.5304050  12.5825530
  44.6434130   2.3378580  12.6754770  39.0114310   5.8797820  27.0856350
  38.6269100   5.2391490  27.6839310  39.3226500   6.5833940  27.6551080
  45.1611450   2.7274360  22.5664970  45.5281580   2.2532930  23.3126310
  44.9716510   3.6015930  22.9073310  42.9510820   1.7683000  24.8849180
  42.6467890   2.6474980  25.1099540  43.9057280   1.8282790  24.9206620
  41.4792610   5.9743990  15.4816030  40.7054870   5.4341610  15.3214750
  42.2087240   5.4550600  15.1433790  52.2380590   4.9709350  21.2742420
  52.9579710   5.4664640  20.8838530  52.0362410   4.2927240  20.6296290
  47.6199390   5.0418410  27.1611420  47.5536700   4.1214080  26.9069010
  46.9904530   5.1393850  27.8756060  41.5230010   5.6424370  19.1194840
  42.0408680   4.8392630  19.0651730  41.0714030   5.5803510  19.9611670
  46.4099510   6.9090650  14.3922140  46.7515210   7.6532880  13.8965460
  45.5812220   7.2221770  14.7546970  39.0074550   2.6085740  26.0320540
  38.6489490   3.2739590  26.6193880  38.7129110   1.7769290  26.4033160
  42.2087670   3.0669980  28.9160090  41.9087810   3.2127160  28.0187910
  42.9798910   2.5075270  28.8233480  47.5516120   7.8638980  26.9115220
  47.5660660   6.9319940  26.6934130  46.8441220   7.9498740  27.5504990
  52.6853190   2.0478800  13.1813830  52.6016910   2.4793020  12.3310270
  53.4047380   2.5077150  13.6140650  53.7627330   4.5046320  26.2583800
  53.0375520   5.0975100  26.0613190  54.2902790   4.4969860  25.4597170
  53.7140440   8.9021060  15.9095960  53.0716600   8.2476680  16.1839680
  53.3271100   9.3076150  15.1336630  49.2926920   6.2306490  19.7567650
  49.6450740   5.6334620  19.0969020  48.4089250   5.9050720  19.9275900
  45.3790200   6.9904180  17.1638060  46.0661330   7.5373390  17.5445650
  44.5922620   7.5344910  17.1987670  37.5182600   2.6077000  12.6555140
  38.3877450   2.8901800  12.9391060  37.0272920   3.4212870  12.5403950
  44.6817410   3.9950210  16.7763420  45.1380190   4.8055460  17.0023610
  44.3305620   3.6773350  17.6081910  46.9850020   9.5056550  24.0055720
  47.6292240   9.7115930  24.6829140  47.3479460   8.7444950  23.5526570
  48.2582100   7.5088900  22.7233170  48.9004330   6.8082060  22.8365340
  48.7831450   8.2887340  22.5430060  52.1037820   7.7937520  12.4472310
  51.8775400   7.0767960  13.0396950  51.7134020   7.5449960  11.6094060
  50.0319720   8.3083800  25.9269230  50.3675960   8.8950490  26.6047150
  49.1120060   8.1776510  26.1567020  37.8853850  11.8204380  13.2216770
  38.2451490  12.4193720  12.5674040  37.7446190  12.3664270  13.9951800
  51.6854070   5.7109460  14.1086470  51.3975770   6.1722150  14.8964350
  52.4806240   5.2507230  14.3770690  37.8695710  10.0859240  27.6959170
  37.9786830   9.1453980  27.5554560  37.2176270  10.3513990  27.0472900
  45.8608300   8.3575130  29.0957290  45.5405170   7.6384370  29.6402980
  45.1866660   9.0330200  29.1693350  43.9022470   9.2035580  14.0390440
  43.8932570   9.9365270  13.4234950  42.9820830   8.9567160  14.1317400
  39.5029110   4.4250470  14.7837200  38.8957060   5.1649370  14.7932500
  39.9778460   4.5149830  13.9575400  46.8882070   9.2663820  12.7015630
  46.9894050   9.0627810  11.7717610  45.9883810   9.0122100  12.9063410
  45.5300180  11.7850140  17.3963300  45.7841680  11.7471530  16.4742670
  44.5812660  11.6583470  17.3891550  51.5352760   2.7042020  18.9721810
  50.5942900   2.7192250  19.1469500  51.8496830   1.9177980  19.4182110
  41.5134400   4.3861620  12.5325770  42.2797670   4.2742980  13.0951200
  41.5909090   3.6899590  11.8802540  53.5378340   9.8750870  20.6476070
  53.6625760  10.6982040  21.1199880  54.4043900   9.6641600  20.3000220
  41.0095870  11.9682080  20.3193200  41.7458350  11.4197540  20.5901770
  41.3936790  12.8338090  20.1799190  37.8941350   8.0355650  16.1934710
  36.9681130   8.2776790  16.1840120  38.3597780   8.8629910  16.0719460
  40.0154150  11.1528150  29.5078780  40.8166880  11.4740200  29.9214180
  39.5005970  10.7923730  30.2298690  44.1198180  11.1412390  12.1418770
  44.9126790  11.4301220  11.6900560  43.6002530  10.7104560  11.4631250
  48.8518780   7.2608020  29.4554190  48.2456940   7.2839620  28.7149940
  48.5472890   6.5291060  29.9921440  50.2819150  10.9888310  28.0663600
  51.2340900  10.9046330  28.0163840  50.1347370  11.6530020  28.7397390
  53.1728350  10.3682520  13.5655510  52.8869860   9.9547660  12.7509690
  52.9747900  11.2970230  13.4456030  37.7351960   3.6401610  28.4514830
  38.2390980   3.0608890  29.0231060  36.9959380   3.9241840  28.9891200
  44.6375580   6.3615800  12.0061120  44.5326220   5.7468150  12.7322500
  44.4699800   5.8381690  11.2224130  44.7889900   5.0472600  27.9850350
  44.0235570   5.6157600  27.9005020  44.9705860   4.7548810  27.0918580
  47.8778310   5.4235830  12.6103110  47.3288410   5.8705130  13.2545850
  48.4997570   4.9185080  13.1340780  51.9313250   6.7777930  28.5425370
  52.6722720   7.1153690  28.0392830  51.1685930   6.9469990  27.9895140
  39.7675040   1.7831200  29.3464900  39.8080380   1.4845070  30.2550130
  40.6220540   2.1838810  29.1872420  43.5453430   4.3826750  14.5068410
  43.9669850   4.2166620  15.3499800  43.6704270   3.5726980  14.0123550
  46.0581070   3.4064360  11.7545510  46.5786730   2.6913380  11.3886660
  46.7049470   4.0450230  12.0546020  50.6058910   4.8292760  27.0780580
  51.0199930   4.9837840  27.9271000  49.6709910   4.9547980  27.2406360
  45.3674140   4.7813240  25.0476510  45.7862250   5.6245970  24.8752750
  44.4482770   4.9185280  24.8183290  47.7038040   2.5129420  26.4314350
  47.8234250   1.9170560  27.1709190  48.5632040   2.5499110  26.0115650
  50.0425940   3.0666610  25.0076860  49.5161160   3.5909230  24.4042000
  50.3857280   3.6994000  25.6386590  43.2181560  11.0866250  26.1634240
  42.6802650  11.8112310  25.8442940  43.4715520  10.6096590  25.3731580
  46.0743770  12.3217460  26.4220890  46.0002470  13.2252600  26.7293260
  45.1722610  12.0029360  26.3942960  46.6229100  11.4875970  14.0447250
  47.5179890  11.8260940  14.0666010  46.6546730  10.7655380  13.4171530
  40.2625260   6.8603020  12.2734250  40.7000130   7.4032690  12.9291830
  40.7472990   6.0349970  12.2830590  37.4771060   9.6492050  19.7254510
  37.8074070   8.7813110  19.4933150  37.9062060   9.8550570  20.5559470
  42.0732980   7.9801060  17.3856480  41.7728520   7.8566030  18.2860390
  41.9670470   7.1209650  16.9772210  37.9661270  10.5162640  22.4636140
  37.5292260  10.6963440  23.2960290  38.5338950  11.2737260  22.3217860
  53.6023450  10.0179640  26.7513450  53.0025440  10.0772200  26.0077370
  53.7317350   9.0784620  26.8810300  54.8424900   7.7597460  12.0883160
  54.0117860   7.8274110  12.5590390  55.0196730   8.6501580  11.7850020
  54.2981360   4.5044940  14.5917360  55.0600270   5.0741590  14.6977050
  54.3135730   3.9372140  15.3625670  37.7985700   3.0282870  18.8225020
  37.1434540   2.7594510  18.1784720  38.6363650   2.9187350  18.3727000
  55.3041330   5.3595040  19.4359290  55.6750160   4.5762360  19.0295260
  55.9443260   6.0484140  19.2576590  52.2875090   6.7431620  24.8489610
  51.4734930   7.1728780  25.1115400  52.6949290   7.3550030  24.2358660
  54.3500530   4.7979310  11.7489880  54.6249370   5.7058190  11.6209100
  54.1611270   4.7341840  12.6851870  54.2465870   2.7348300  16.7419310
  53.8709470   1.9676230  16.3100600  53.5168990   3.1171000  17.2294240
  38.8361630   3.4135440  23.3628360  39.2034670   3.3262840  24.2424380
  38.2672450   2.6501990  23.2635220  53.6365490   1.8819820  26.3758830
  53.4051580   1.6532570  25.4756780  53.8970040   2.8019370  26.3303720
  52.3451140  11.4950220  18.3757880  52.9410210  11.1734790  17.6992300
  52.6029290  11.0222040  19.1671150  40.2513710   7.9268130  28.5248510
  40.2083340   7.5561040  29.4062970  40.3824720   8.8645700  28.6650330
  43.9519740   9.4827720  24.1258230  43.7111100   9.7502280  23.2388750
  44.8922380   9.6533450  24.1809090  55.2123900  11.5022100  24.9268870
  54.7182180  11.8990970  24.2096000  54.6037190  10.8771310  25.3206150
  40.0901740  10.8730380  25.6446290  39.4962060  10.7415080  26.3836330
  40.0825580  10.0368520  25.1788390  52.8963350  12.1445520  22.2055610
  52.4366320  12.8961330  21.8313630  52.2675810  11.4251990  22.1470410
  39.7213970   8.2388760  24.5954330  38.9948030   7.6194050  24.5280280
  39.7823120   8.6329370  23.7252410  43.3259070  10.4533760  21.3803740
  43.8424090   9.8421120  20.8552000  43.9756450  10.9562540  21.8714750
  46.0654570  11.3442250  22.2072720  46.3532380  11.0896550  21.3305730
  46.5777790  10.7919610  22.7978290  38.0043970  11.5563150  17.8051090
  37.8366010  10.9233830  18.5032980  37.1378480  11.7622550  17.4545280
  39.6106670  10.2496380  15.2501230  39.0854290  10.6304410  14.5463190
  39.5351250  10.8747150  15.9710940  46.1326930  12.2658350  29.5740920
  47.0594240  12.0302620  29.6176880  46.1177360  13.0930350  29.0926950
  54.3671990  11.8083920  16.5715170  54.5424180  11.1221660  15.9276090
  53.6693560  12.3330970  16.1791840  42.2099640  12.1978760  14.1250480
  42.9418460  11.9138040  13.5774370  42.4693310  11.9592040  15.0149860
  41.3714430   8.3143490  14.1296810  40.7423310   8.7828590  14.6782640
  41.4862260   7.4692710  14.5643000  52.7004490  11.4928210  29.3981960
  53.4929810  10.9977440  29.1907920  52.9937640  12.1718350  30.0057570
  46.9582190   4.1428170   2.1607280  46.1824290   3.6628610   2.4505850
  47.6095120   3.4633820   1.9863440  40.9748020   4.4547980   3.0383040
  40.1432900   4.1996690   3.4379550  41.5829000   4.5258750   3.7740960
  40.9549280   8.4888070   3.2341060  41.2577320   7.5985810   3.0551280
  41.6992870   9.0458290   3.0063310  46.3991180   6.8185360   2.1677440
  46.3299460   5.8775300   2.0066570  47.1611040   6.9086770   2.7400010
  42.9348040   5.2461480   4.6325910  42.6017420   5.8730400   5.2746980
  43.1114720   5.7723360   3.8527580  42.1467140   7.2142280   6.4475090
  42.7641140   7.8893360   6.1659540  41.2860260   7.6230260   6.3562590
  53.0644730   8.6781690   4.3629730  52.3808250   9.3480800   4.3546400
  53.6039020   8.8762340   3.5974590  50.6003470  10.5225820   3.0774910
  50.6130630  10.1188110   2.2097170  50.0478690  11.2973110   2.9736340
  49.9988910   5.4255660   4.4057520  50.4157700   5.2115770   3.5710980
  50.7228730   5.6828450   4.9766140  53.9451010   3.8242880   4.4973760
  53.1169640   3.8935970   4.0223890  54.5401490   4.4097190   4.0289590
  43.5107510   7.0839660   2.4686510  43.2135800   6.4785130   1.7894290
  44.4607330   7.1216970   2.3575870  51.5993120  10.6571530   6.1309610
  51.1223680  11.4643720   5.9382220  50.9154910  10.0049860   6.2835820
  42.6025940   6.8221350   9.1194310  41.7054470   7.0461320   9.3667710
  42.6278810   6.9456290   8.1705710  41.4297160   3.6934670   7.6951680
  41.2904930   4.5657470   8.0639080  40.5478520   3.3507480   7.5499620
  43.2277510   9.6356370   9.9036830  43.1992940  10.0399320   9.0365260
  43.0642480   8.7066730   9.7408430  55.1792330  10.4183470  11.2001000
  55.6552050  10.8966360  11.8790080  55.7999490  10.3500960  10.4746500
  37.3815810   5.4632220   3.6122590  37.4596230   5.5980990   2.6678310
  37.9957490   4.7548110   3.8050710  54.5825580   7.6096320   8.3601010
  54.7088640   7.3708200   7.4418190  54.6246960   6.7780860   8.8323090
  48.4442320  11.3124320   6.9295820  48.9586990  11.2232330   7.7318250
  47.6011400  11.6584020   7.2223730  37.4375330   6.5046390   6.1517050
  37.6006370   6.0351750   5.3336420  37.9027780   5.9969950   6.8165890
  39.0114310   5.8797820   8.3112860  38.6269100   5.2391490   8.9095820
  39.3226500   6.5833940   8.8807590  45.1611450   2.7274360   3.7921480
  45.5281580   2.2532930   4.5382820  44.9716510   3.6015930   4.1329820
  42.9510820   1.7683000   6.1105690  42.6467890   2.6474980   6.3356050
  43.9057280   1.8282790   6.1463130  52.2380590   4.9709350   2.4998930
  52.9579710   5.4664640   2.1095040  52.0362410   4.2927240   1.8552800
  47.6199390   5.0418410   8.3867930  47.5536700   4.1214080   8.1325520
  46.9904530   5.1393850   9.1012570  39.0074550   2.6085740   7.2577050
  38.6489490   3.2739590   7.8450390  38.7129110   1.7769290   7.6289670
  42.2087670   3.0669980  10.1416600  41.9087810   3.2127160   9.2444420
  42.9798910   2.5075270  10.0489990  47.5516120   7.8638980   8.1371730
  47.5660660   6.9319940   7.9190640  46.8441220   7.9498740   8.7761500
  53.7627330   4.5046320   7.4840310  53.0375520   5.0975100   7.2869700
  54.2902790   4.4969860   6.6853680  46.9850020   9.5056550   5.2312230
  47.6292240   9.7115930   5.9085650  47.3479460   8.7444950   4.7783080
  48.2582100   7.5088900   3.9489680  48.9004330   6.8082060   4.0621850
  48.7831450   8.2887340   3.7686570  50.0319720   8.3083800   7.1525740
  50.3675960   8.8950490   7.8303660  49.1120060   8.1776510   7.3823530
  37.8695710  10.0859240   8.9215680  37.9786830   9.1453980   8.7811070
  37.2176270  10.3513990   8.2729410  45.8608300   8.3575130  10.3213800
  45.5405170   7.6384370  10.8659490  45.1866660   9.0330200  10.3949860
  53.5378340   9.8750870   1.8732580  53.6625760  10.6982040   2.3456390
  54.4043900   9.6641600   1.5256730  40.0154150  11.1528150  10.7335290
  40.8166880  11.4740200  11.1470690  39.5005970  10.7923730  11.4555200
  48.8518780   7.2608020  10.6810700  48.2456940   7.2839620   9.9406450
  48.5472890   6.5291060  11.2177950  50.2819150  10.9888310   9.2920110
  51.2340900  10.9046330   9.2420350  50.1347370  11.6530020   9.9653900
  37.7351960   3.6401610   9.6771340  38.2390980   3.0608890  10.2487570
  36.9959380   3.9241840  10.2147710  44.7889900   5.0472600   9.2106860
  44.0235570   5.6157600   9.1261530  44.9705860   4.7548810   8.3175090
  51.9313250   6.7777930   9.7681880  52.6722720   7.1153690   9.2649340
  51.1685930   6.9469990   9.2151650  39.7675040   1.7831200  10.5721410
  39.8080380   1.4845070  11.4806640  40.6220540   2.1838810  10.4128930
  50.6058910   4.8292760   8.3037090  51.0199930   4.9837840   9.1527510
  49.6709910   4.9547980   8.4662870  45.3674140   4.7813240   6.2733020
  45.7862250   5.6245970   6.1009260  44.4482770   4.9185280   6.0439800
  47.7038040   2.5129420   7.6570860  47.8234250   1.9170560   8.3965700
  48.5632040   2.5499110   7.2372160  50.0425940   3.0666610   6.2333370
  49.5161160   3.5909230   5.6298510  50.3857280   3.6994000   6.8643100
  43.2181560  11.0866250   7.3890750  42.6802650  11.8112310   7.0699450
  43.4715520  10.6096590   6.5988090  46.0743770  12.3217460   7.6477400
  46.0002470  13.2252600   7.9549770  45.1722610  12.0029360   7.6199470
  37.9661270  10.5162640   3.6892650  37.5292260  10.6963440   4.5216800
  38.5338950  11.2737260   3.5474370  53.6023450  10.0179640   7.9769960
  53.0025440  10.0772200   7.2333880  53.7317350   9.0784620   8.1066810
  52.2875090   6.7431620   6.0746120  51.4734930   7.1728780   6.3371910
  52.6949290   7.3550030   5.4615170  38.8361630   3.4135440   4.5884870
  39.2034670   3.3262840   5.4680890  38.2672450   2.6501990   4.4891730
  53.6365490   1.8819820   7.6015340  53.4051580   1.6532570   6.7013290
  53.8970040   2.8019370   7.5560230  40.2513710   7.9268130   9.7505020
  40.2083340   7.5561040  10.6319480  40.3824720   8.8645700   9.8906840
  43.9519740   9.4827720   5.3514740  43.7111100   9.7502280   4.4645260
  44.8922380   9.6533450   5.4065600  55.2123900  11.5022100   6.1525380
  54.7182180  11.8990970   5.4352510  54.6037190  10.8771310   6.5462660
  40.0901740  10.8730380   6.8702800  39.4962060  10.7415080   7.6092840
  40.0825580  10.0368520   6.4044900  52.8963350  12.1445520   3.4312120
  52.4366320  12.8961330   3.0570140  52.2675810  11.4251990   3.3726920
  39.7213970   8.2388760   5.8210840  38.9948030   7.6194050   5.7536790
  39.7823120   8.6329370   4.9508920  43.3259070  10.4533760   2.6060250
  43.8424090   9.8421120   2.0808510  43.9756450  10.9562540   3.0971260
  46.0654570  11.3442250   3.4329230  46.3532380  11.0896550   2.5562240
  46.5777790  10.7919610   4.0234800  46.1326930  12.2658350  10.7997430
  47.0594240  12.0302620  10.8433390  46.1177360  13.0930350  10.3183460
  52.7004490  11.4928210  10.6238470  53.4929810  10.9977440  10.4164430
  52.9937640  12.1718350  11.2314080  30.0520660  96.2366600  56.6028480
  29.9714710  95.3221210  56.3320190  29.6385080  96.7333670  55.8968190
  20.6096480  93.2867320  53.1455900  19.7213180  93.6283290  53.0435780
  20.8937670  93.0867640  52.2536730  22.7857870  91.8698820  54.1794280
  22.8924620  92.7702550  54.4863040  21.8750230  91.8216790  53.8888930
  32.4376980  90.9923630  55.6505180  33.2586600  90.5020200  55.6930660
  32.4711060  91.5821290  56.4037020  26.2744920  88.6775980  57.1097920
  26.5819900  88.1222870  56.3933420  25.3445620  88.8120440  56.9270910
  28.6625680  96.7424810  53.8458040  27.7354960  96.6762190  54.0746510
  28.8150500  97.6804940  53.7313280  28.6494760  93.0141810  50.8425200
  27.7098430  93.1755770  50.9277660  28.9678020  93.7327490  50.2961190
  32.6922970  98.3045110  54.3493290  32.0735390  97.9664660  53.7019590
  32.6747420  97.6604870  55.0572480  24.2682320  97.2689550  56.6277770
  23.8639320  96.5566800  56.1323670  24.3545440  96.9242790  57.5165810
  30.8687670  97.5431920  51.3566040  31.3080950  96.7054350  51.2103860
  31.5816090  98.1761320  51.4430180  34.4504810  88.7974730  49.6707080
  34.1377470  88.8901560  50.5706150  35.2117280  89.3755760  49.6204510
  20.9686950  96.1634530  54.1284420  20.8484550  96.8896620  53.5165690
  20.6587840  95.3937440  53.6512330  23.4350610  89.5069600  57.5108090
  22.9918760  90.2879140  57.1792610  23.9935600  89.8299490  58.2179030
  26.5509430  89.1280300  52.3913920  25.9263610  89.1240170  53.1167230
  26.4639550  88.2611260  51.9949890  23.2264830  94.6303170  55.2389340
  23.0005750  94.4140340  56.1435960  22.4457360  95.0631630  54.8935310
  30.4562590  94.6366540  53.8379990  29.8571480  95.3602340  53.6543610
  31.0042200  94.5743320  53.0556440  29.0627460  93.2730080  55.8683270
  29.4557030  93.5902280  55.0551960  29.4244310  92.3941960  55.9827790
  18.2861860  93.8051000  49.3016190  18.2036530  94.7481760  49.4431180
  17.9344920  93.6625910  48.4228540  26.0859990  92.5390030  58.3686540
  26.0896050  92.0979980  57.5191080  26.9811110  92.8607360  58.4758360
  21.9362370  92.4216520  57.3280750  21.5962420  92.8991750  58.0847800
  21.1739690  91.9681640  56.9681850  26.1480140  93.5402110  51.3593300
  26.2692960  93.4988590  52.3079120  25.7628650  94.4026260  51.2040030
  25.1601640  95.8503250  50.7576600  24.5918540  95.4021500  50.1312510
  25.8690640  96.2096030  50.2241750  19.2508450  91.3435500  56.2445420
  18.9655370  90.9791170  57.0824040  19.1887310  90.6115960  55.6308560
  28.9247040  90.2364760  52.9658790  28.1111650  89.7377930  52.8904100
  28.7308990  91.0763010  52.5495140  31.6395430  94.6084410  51.2620950
  32.5275050  94.9201640  51.0872290  31.6100520  93.7356660  50.8701530
  33.9109700  95.9196250  50.7300810  33.8273420  96.3510470  49.8797250
  34.6303890  96.3794600  51.1627630  18.7439110  96.4794450  50.2042120
  19.6133960  96.7619250  50.4878040  18.2529430  97.2930320  50.0890930
  25.9073920  97.8667660  54.3250400  26.3636700  98.6772910  54.5510590
  25.5562130  97.5490800  55.1568890  21.8085700  88.2105310  54.7972920
  21.6800330  88.2023210  55.7457840  20.9847720  88.5488400  54.4463930
  33.6680440  91.4175680  52.8168630  33.0393600  91.5221350  52.1026860
  33.1732360  91.6372460  53.6062510  25.6364470  93.6961630  54.2326510
  24.9280620  94.1647970  54.6740120  25.9208950  93.0383640  54.8671700
  29.6679900  90.4212290  55.6722300  29.5447680  90.4398420  54.7231810
  30.6164460  90.4691230  55.7920700  23.8399490  92.0046710  51.6077220
  24.6890020  92.4416860  51.5417410  23.4730760  92.3166970  52.4349280
  32.7609270  96.5759470  56.5208790  31.8199410  96.5909700  56.6956480
  33.0753340  95.7895430  56.9669090  22.7390910  98.2579070  50.0812750
  23.5054180  98.1460430  50.6438180  22.8165600  97.5617040  49.4289520
  21.4337670  95.6904140  50.7645640  21.5141260  94.7431650  50.8763040
  22.3257420  96.0211020  50.8706300  24.7709940  98.2544200  52.0555390
  25.1926360  98.0884070  52.8986780  24.8960780  97.4444430  51.5610530
  27.2837580  97.2781810  49.3032490  27.8043240  96.5630830  48.9373640
  27.9305980  97.9167680  49.6033000  23.6668840  94.3277430  49.0013550
  23.4657900  93.4644790  49.3626890  23.4960890  94.2410790  48.0635150
  31.1457150  89.1385660  51.5300430  31.4259440  88.2953560  51.8859850
  30.3722880  89.3708770  52.0439180  22.4651640  91.4278050  48.9891430
  22.7677540  91.4345480  48.0810580  23.2046230  91.0775910  49.4859090
  25.6836570  90.3712670  49.9747630  25.3358570  89.6936660  49.3950080
  25.8849340  89.9102180  50.7891020  19.0242210  96.9000320  56.3712000
  18.3691050  96.6311960  55.7271700  19.8620160  96.7904800  55.9213980
  31.9732650  91.6941610  50.5930490  32.3917530  91.5072590  49.7527150
  31.6668710  90.8420660  50.9033420  35.4722380  96.6065750  54.2906290
  35.0965980  95.8393680  53.8587580  34.7425500  96.9888450  54.7781220
  18.2380290  94.1099250  52.3137330  17.3344370  94.3729450  52.1388990
  18.7220910  94.3810420  51.5337290  34.7473340  94.8323240  57.5913530
  35.2710820  94.3385890  56.9603700  35.3332760  94.9673600  58.3361100
  20.7807500  93.1664790  50.2231710  21.4899200  92.7448010  49.7378990
  20.0647440  93.2340020  49.5915060  20.4281660  89.2204120  49.2634360
  21.1509790  89.7613060  49.5815580  20.7006180  88.9467540  48.3875900
  34.2373310  94.0896590  53.5305940  34.7332430  93.8567460  54.3154820
  34.0389380  93.2508430  53.1143580  35.6660470  92.7257540  56.0643620
  35.5559750  92.5713580  57.0025890  36.4268060  92.1978480  55.8219030
  36.5550740  90.5565460  49.3049760  37.4800050  90.4246640  49.0968050
  36.5326530  90.6358280  50.2586210  36.6289230  91.3276120  51.9306470
  35.8340730  91.2621240  52.4599380  36.8332510  92.2626760  51.9191820
  33.0609160  89.6573000  58.3805300  33.5017250  89.6018100  57.5326900
  32.7916750  90.5731010  58.4515480  34.9247730  89.2888240  56.3914120
  34.8636130  88.3449460  56.2445140  35.7039760  89.3968330  56.9367580
  19.8528500  89.2597380  52.8569930  20.6107860  89.3726260  52.2833960
  19.3905670  90.0966580  52.8113360  26.3942310  91.3736650  55.8472240
  25.5816820  90.9993540  55.5068120  26.8983950  90.6181730  56.1493430
  30.8967290  88.0379100  57.0855310  31.4996660  88.6099310  57.5603830
  30.1560280  88.6018540  56.8629210  34.0401890  88.4400660  52.3595590
  34.2352520  89.3384110  52.6263020  33.2531760  88.2087740  52.8528540
  22.2253650  89.7861430  51.3971900  22.7546410  88.9991230  51.2679850
  22.8581970  90.4652620  51.6307430  24.4191490  89.5236570  54.4517290
  23.7894230  88.8223880  54.6187420  23.8796630  90.2840700  54.2350450
  30.0520660  96.2366600  37.8284990  29.9714710  95.3221210  37.5576700
  29.6385080  96.7333670  37.1224700  28.1838700  98.0145620  39.7094260
  27.4080800  97.5346060  39.9992830  28.8351630  97.3351270  39.5350420
  22.2004530  98.3265430  40.5870020  21.3689410  98.0714140  40.9866530
  22.8085510  98.3976200  41.3227940  20.6096480  93.2867320  34.3712410
  19.7213180  93.6283290  34.2692290  20.8937670  93.0867640  33.4793240
  18.5729490  95.8872970  40.2552110  19.1445600  95.1195170  40.2555750
  18.5731030  96.1861730  39.3458720  19.8154360  91.2957330  42.0421040
  19.6357200  90.3983080  42.3223800  19.4134440  91.8429200  42.7167990
  28.6552860  93.4973190  39.9433350  29.0317680  92.6245070  39.8307020
  28.5572370  93.8331890  39.0523790  22.7857870  91.8698820  35.4050790
  22.8924620  92.7702550  35.7119550  21.8750230  91.8216790  35.1145440
  32.4376980  90.9923630  36.8761690  33.2586600  90.5020200  36.9187170
  32.4711060  91.5821290  37.6293530  20.4341030  93.7917830  40.6503380
  21.1151140  94.0556200  41.2690780  20.1189080  92.9518700  40.9841390
  24.6265600  94.8385190  39.7375970  25.1343820  95.3366160  40.3780990
  25.1578840  94.0620390  39.5615330  36.7276530  93.0090380  43.4405320
  36.0228700  93.3972090  42.9220430  36.9934450  93.7040670  44.0426250
  22.9101700  89.4783750  44.0039390  22.9120140  89.9956140  43.1985290
  22.0806010  89.0013930  43.9809320  32.6738460  92.9324010  39.6489230
  31.9694030  93.2208900  40.2292340  33.0350620  93.7424120  39.2888790
  22.5917030  91.1893710  42.0109840  22.9333840  92.0335760  41.7163710
  21.6532840  91.3377450  42.1275180  35.7425380  92.3778800  40.0398440
  34.7950290  92.4117780  40.1713870  36.0675370  93.1917750  40.4247800
  26.2744920  88.6775980  38.3354430  26.5819900  88.1222870  37.6189930
  25.3445620  88.8120440  38.1527420  28.6625680  96.7424810  35.0714550
  27.7354960  96.6762190  35.3003020  28.8150500  97.6804940  34.9569790
  28.6494760  93.0141810  32.0681710  27.7098430  93.1755770  32.1534170
  28.9678020  93.7327490  31.5217700  35.1707520  97.6960330  42.0460740
  34.3426150  97.7653420  41.5710870  35.7658000  98.2814640  41.5776570
  32.6922970  98.3045110  35.5749800  32.0735390  97.9664660  34.9276100
  32.6747420  97.6604870  36.2828990  32.1349530  94.4829650  42.9915610
  31.7220710  95.3083360  43.2455600  31.4025480  93.8974690  42.7991970
  24.2682320  97.2689550  37.8534280  23.8639320  96.5566800  37.3580180
  24.3545440  96.9242790  38.7422320  22.9810940  94.0432760  41.6333320
  23.5325530  94.1528100  40.8586570  23.4954450  94.4170360  42.3488550
  30.8687670  97.5431920  32.5822550  31.3080950  96.7054350  32.4360370
  31.5816090  98.1761320  32.6686690  22.6553670  97.5652120  45.2438660
  22.5161440  98.4374920  45.6126060  21.7735030  97.2224930  45.0986600
  34.4504810  88.7974730  30.8963590  34.1377470  88.8901560  31.7962660
  35.2117280  89.3755760  30.8461020  20.9686950  96.1634530  35.3540930
  20.8484550  96.8896620  34.7422200  20.6587840  95.3937440  34.8768840
  35.6606100  93.5346230  46.8737730  35.0450370  94.0425900  46.3453190
  35.3402520  92.6344560  46.8163670  23.4350610  89.5069600  38.7364600
  22.9918760  90.2879140  38.4049120  23.9935600  89.8299490  39.4435540
  27.7220420  92.3738120  44.3399920  27.2599790  92.5821140  45.1519860
  27.3198530  91.5597470  44.0370590  32.7224930  93.5947070  45.4696580
  31.8718520  93.2952820  45.7905650  32.5626720  93.8389080  44.5580400
  29.8174640  95.0948820  47.5695370  30.1428050  94.2612570  47.2297600
  30.6054970  95.6177340  47.7173700  26.5509430  89.1280300  33.6170430
  25.9263610  89.1240170  34.3423740  26.4639550  88.2611260  33.2206400
  25.4726510  90.0516930  40.5954200  25.7698840  90.9579760  40.5146220
  26.0212070  89.5635710  39.9813770  23.2264830  94.6303170  36.4645850
  23.0005750  94.4140340  37.3692470  22.4457360  95.0631630  36.1191820
  30.4562590  94.6366540  35.0636500  29.8571480  95.3602340  34.8800120
  31.0042200  94.5743320  34.2812950  25.6664040  95.5288750  47.1306120
  25.5707640  94.5883480  46.9806520  26.5096020  95.7503820  46.7354190
  29.0627460  93.2730080  37.0939780  29.4557030  93.5902280  36.2808470
  29.4244310  92.3941960  37.2084300  20.7974580  91.9402420  45.2839900
  20.4037970  92.7877630  45.4912680  20.1092980  91.3028790  45.4748540
  27.3719630  92.0237390  48.3536640  26.6817950  91.8309590  48.9882730
  28.1151930  92.3072030  48.8860940  18.0991630  89.8630880  39.3169980
  17.8104680  90.4333740  40.0294960  18.8437390  89.3835330  39.6801210
  18.2861860  93.8051000  30.5272700  18.2036530  94.7481760  30.6687690
  17.9344920  93.6625910  29.6485050  29.6482600  95.8635830  41.1890560
  28.9163720  96.3722640  41.5380660  29.2506940  95.0465810  40.8879340
  26.0859990  92.5390030  39.5943050  26.0896050  92.0979980  38.7447590
  26.9811110  92.8607360  39.7014870  21.9362370  92.4216520  38.5537260
  21.5962420  92.8991750  39.3104310  21.1739690  91.9681640  38.1938360
  26.1480140  93.5402110  32.5849810  26.2692960  93.4988590  33.5335630
  25.7628650  94.4026260  32.4296540  30.1108510  91.3169510  40.6013500
  30.1281250  91.7678160  41.4455350  29.8624090  90.4175150  40.8146940
  25.1601640  95.8503250  31.9833110  24.5918540  95.4021500  31.3569020
  25.8690640  96.2096030  31.4498260  33.5379260  88.7301690  46.4399880
  33.8625030  87.9991350  46.9657860  33.5735770  88.4115330  45.5380870
  26.3867960  96.5991810  41.3408460  26.7538090  96.1250380  42.0869800
  26.1973020  97.4733380  41.6816800  19.2508450  91.3435500  37.4701930
  18.9655370  90.9791170  38.3080550  19.1887310  90.6115960  36.8565070
  24.1767330  95.6400450  43.6592670  23.8724400  96.5192430  43.8843030
  25.1313790  95.7000240  43.6950110  28.9247040  90.2364760  34.1915300
  28.1111650  89.7377930  34.1160610  28.7308990  91.0763010  33.7751650
  31.6395430  94.6084410  32.4877460  32.5275050  94.9201640  32.3128800
  31.6100520  93.7356660  32.0958040  20.2331060  96.4803190  44.8064030
  19.8746000  97.1457040  45.3937370  19.9385620  95.6486740  45.1776650
  23.4344180  96.9387430  47.6903580  23.1344320  97.0844610  46.7931400
  24.2055420  96.3792720  47.5976970  33.9109700  95.9196250  31.9557320
  33.8273420  96.3510470  31.1053760  34.6303890  96.3794600  32.3884140
  18.7439110  96.4794450  31.4298630  19.6133960  96.7619250  31.7134550
  18.2529430  97.2930320  31.3147440  25.9073920  97.8667660  35.5506910
  26.3636700  98.6772910  35.7767100  25.5562130  97.5490800  36.3825400
  21.8085700  88.2105310  36.0229430  21.6800330  88.2023210  36.9714350
  20.9847720  88.5488400  35.6720440  18.8079630  89.9696430  45.4836130
  18.0938150  90.1693350  46.0888740  19.2274670  89.1936000  45.8550930
  30.3018410  92.4618740  43.2337580  30.6699230  91.6413950  43.5617150
  29.4416610  92.5220630  43.6493230  33.6680440  91.4175680  34.0425140
  33.0393600  91.5221350  33.3283370  33.1732360  91.6372460  34.8319020
  25.6364470  93.6961630  35.4583020  24.9280620  94.1647970  35.8996630
  25.9208950  93.0383640  36.0928210  27.2620400  95.1158330  43.4575550
  27.7605650  95.5904150  44.1227400  27.4043350  94.1921850  43.6645580
  29.6679900  90.4212290  36.8978810  29.5447680  90.4398420  35.9488320
  30.6164460  90.4691230  37.0177210  23.8399490  92.0046710  32.8333730
  24.6890020  92.4416860  32.7673920  23.4730760  92.3166970  33.6605790
  34.4687260  91.3326290  44.3003940  33.9660860  92.0731690  44.6397750
  35.2843920  91.7210290  43.9840730  32.7609270  96.5759470  37.7465300
  31.8199410  96.5909700  37.9212990  33.0753340  95.7895430  38.1925600
  22.7390910  98.2579070  31.3069260  23.5054180  98.1460430  31.8694690
  22.8165600  97.5617040  30.6546030  21.4337670  95.6904140  31.9902150
  21.5141260  94.7431650  32.1019550  22.3257420  96.0211020  32.0962810
  18.9608470  97.5119060  47.2258320  19.4647490  96.9326340  47.7974550
  18.2215890  97.7959290  47.7634690  20.9931550  95.6548650  48.1208390
  21.0336890  95.3562520  49.0293620  21.8477050  96.0556260  47.9615910
  24.7709940  98.2544200  33.2811900  25.1926360  98.0884070  34.1243290
  24.8960780  97.4444430  32.7867040  22.9337360  94.2340750  46.0882880
  22.4033820  93.7431700  45.4606220  23.6025430  94.6624950  45.5540810
  27.2837580  97.2781810  30.5289000  27.8043240  96.5630830  30.1630150
  27.9305980  97.9167680  30.8289510  32.3037590  96.0406370  47.8563220
  32.8858360  95.2858690  47.7683700  32.4799360  96.5713810  47.0794700
  23.4209660  91.2003120  46.1680170  23.3266530  90.5823870  45.4431040
  22.8407050  91.9269410  45.9410080  26.1871100  89.7576360  43.2007560
  25.7388400  89.7800620  42.3553110  25.5536300  89.3595380  43.7977860
  28.9294550  96.3846870  45.2057840  29.0490760  95.7888010  45.9452680
  29.7888550  96.4216560  44.7859140  31.2682450  96.9384060  43.7820350
  30.7417670  97.4626680  43.1785490  31.6113790  97.5711450  44.4130080
  23.6668840  94.3277430  30.2270060  23.4657900  93.4644790  30.5883400
  23.4960890  94.2410790  29.2891660  25.6963320  92.9268220  46.4633660
  26.2863010  92.6184070  47.1511480  24.8783560  92.4547970  46.6193560
  30.5156750  92.5434030  46.6966680  29.8272270  91.8815570  46.6316670
  31.2362770  92.0972300  47.1415140  31.1457150  89.1385660  32.7556940
  31.4259440  88.2953560  33.1116360  30.3722880  89.3708770  33.2695690
  22.4651640  91.4278050  30.2147940  22.7677540  91.4345480  29.3067090
  23.2046230  91.0775910  30.7115600  25.6836570  90.3712670  31.2004140
  25.3358570  89.6936660  30.6206590  25.8849340  89.9102180  32.0147530
  19.0242210  96.9000320  37.5968510  18.3691050  96.6311960  36.9528210
  19.8620160  96.7904800  37.1470490  31.9732650  91.6941610  31.8187000
  32.3917530  91.5072590  30.9783660  31.6668710  90.8420660  32.1289930
  35.4722380  96.6065750  35.5162800  35.0965980  95.8393680  35.0844090
  34.7425500  96.9888450  36.0037730  20.0618140  97.2852890  42.1371850
  20.4291180  97.1980290  43.0167870  19.4928960  96.5219440  42.0378710
  34.8622000  95.7537270  45.1502320  34.6308090  95.5250020  44.2500270
  35.1226550  96.6736820  45.1047210  19.6134140  94.1961980  46.0430270
  18.7190190  94.1628740  46.3823980  20.1531690  94.3948770  46.8081520
  33.3010070  90.9793700  47.9282020  34.1780250  90.9877100  48.3116020
  33.3130910  90.2424540  47.3174370  18.2380290  94.1099250  33.5393840
  17.3344370  94.3729450  33.3645500  18.7220910  94.3810420  32.7593800
  34.7473340  94.8323240  38.8170040  35.2710820  94.3385890  38.1860210
  35.3332760  94.9673600  39.5617610  34.9263060  94.9163110  42.3389590
  33.9765770  94.8826650  42.4534580  35.1076070  95.8263220  42.1039360
  20.7807500  93.1664790  31.4488220  21.4899200  92.7448010  30.9635500
  20.0647440  93.2340020  30.8171570  20.4281660  89.2204120  30.4890870
  21.1509790  89.7613060  30.8072090  20.7006180  88.9467540  29.6132410
  34.2373310  94.0896590  34.7562450  34.7332430  93.8567460  35.5411330
  34.0389380  93.2508430  34.3400090  20.1173850  88.4710310  40.3913490
  20.7650040  87.9207690  39.9508650  20.5375690  88.7253460  41.2129300
  35.6660470  92.7257540  37.2900130  35.5559750  92.5713580  38.2282400
  36.4268060  92.1978480  37.0475540  34.0126190  88.6651670  43.7483130
  34.6498410  89.2785810  44.1142320  34.1601080  88.7012330  42.8032360
  36.5550740  90.5565460  30.5306270  37.4800050  90.4246640  30.3224560
  36.5326530  90.6358280  31.4842720  36.6289230  91.3276120  33.1562980
  35.8340730  91.2621240  33.6855890  36.8332510  92.2626760  33.1448330
  19.8705850  88.6265980  43.1338810  19.5220670  89.0829800  43.8996990
  19.5393550  87.7323110  43.2161240  27.3830670  89.8177860  46.6558230
  27.3219560  90.4099690  47.4053640  28.3231050  89.7103820  46.5108490
  30.0205230  89.4747920  46.2950520  30.6345640  89.7927210  45.6331600
  30.5654790  88.9896510  46.9146380  20.5426490  88.1542180  46.4089580
  21.0909480  87.9730230  45.6455690  20.6081800  87.3636290  46.9445890
  30.7613270  88.0380060  42.6219810  29.8873110  88.3715170  42.4192740
  30.6524020  87.5653240  43.4471680  31.6685250  90.2450930  44.0061530
  31.3398610  89.4302690  43.6263260  32.6167550  90.2020740  43.8827220
  28.5088090  88.9549900  41.5612720  27.7259880  89.4295400  41.8409480
  28.2151020  88.0504730  41.4525900  33.0609160  89.6573000  39.6061810
  33.5017250  89.6018100  38.7583410  32.7916750  90.5731010  39.6771990
  34.9247730  89.2888240  37.6170630  34.8636130  88.3449460  37.4701650
  35.7039760  89.3968330  38.1624090  19.8528500  89.2597380  34.0826440
  20.6107860  89.3726260  33.5090470  19.3905670  90.0966580  34.0369870
  26.3942310  91.3736650  37.0728750  25.5816820  90.9993540  36.7324630
  26.8983950  90.6181730  37.3749940  30.8967290  88.0379100  38.3111820
  31.4996660  88.6099310  38.7860340  30.1560280  88.6018540  38.0885720
  34.0401890  88.4400660  33.5852100  34.2352520  89.3384110  33.8519530
  33.2531760  88.2087740  34.0785050  22.2253650  89.7861430  32.6228410
  22.7546410  88.9991230  32.4936360  22.8581970  90.4652620  32.8563940
  24.4191490  89.5236570  35.6773800  23.7894230  88.8223880  35.8443930
  23.8796630  90.2840700  35.4606960  24.5447050  88.8020550  48.1126290
  24.2631320  89.3054150  47.3487110  24.9266750  88.0042300  47.7468420
  31.1462510  88.2174130  48.6906760  31.0327960  88.5368740  49.5858280
  31.9632250  88.6186640  48.3944040  30.0520660  96.2366600  19.0541500
  29.9714710  95.3221210  18.7833210  29.6385080  96.7333670  18.3481210
  28.1838700  98.0145620  20.9350770  27.4080800  97.5346060  21.2249340
  28.8351630  97.3351270  20.7606930  22.2004530  98.3265430  21.8126530
  21.3689410  98.0714140  22.2123040  22.8085510  98.3976200  22.5484450
  20.6096480  93.2867320  15.5968920  19.7213180  93.6283290  15.4948800
  20.8937670  93.0867640  14.7049750  18.5729490  95.8872970  21.4808620
  19.1445600  95.1195170  21.4812260  18.5731030  96.1861730  20.5715230
  19.8154360  91.2957330  23.2677550  19.6357200  90.3983080  23.5480310
  19.4134440  91.8429200  23.9424500  28.6552860  93.4973190  21.1689860
  29.0317680  92.6245070  21.0563530  28.5572370  93.8331890  20.2780300
  22.7857870  91.8698820  16.6307300  22.8924620  92.7702550  16.9376060
  21.8750230  91.8216790  16.3401950  32.4376980  90.9923630  18.1018200
  33.2586600  90.5020200  18.1443680  32.4711060  91.5821290  18.8550040
  20.4341030  93.7917830  21.8759890  21.1151140  94.0556200  22.4947290
  20.1189080  92.9518700  22.2097900  24.6265600  94.8385190  20.9632480
  25.1343820  95.3366160  21.6037500  25.1578840  94.0620390  20.7871840
  36.7276530  93.0090380  24.6661830  36.0228700  93.3972090  24.1476940
  36.9934450  93.7040670  25.2682760  22.9101700  89.4783750  25.2295900
  22.9120140  89.9956140  24.4241800  22.0806010  89.0013930  25.2065830
  32.6738460  92.9324010  20.8745740  31.9694030  93.2208900  21.4548850
  33.0350620  93.7424120  20.5145300  22.5917030  91.1893710  23.2366350
  22.9333840  92.0335760  22.9420220  21.6532840  91.3377450  23.3531690
  35.7425380  92.3778800  21.2654950  34.7950290  92.4117780  21.3970380
  36.0675370  93.1917750  21.6504310  26.2744920  88.6775980  19.5610940
  26.5819900  88.1222870  18.8446440  25.3445620  88.8120440  19.3783930
  28.6625680  96.7424810  16.2971060  27.7354960  96.6762190  16.5259530
  28.8150500  97.6804940  16.1826300  28.6494760  93.0141810  13.2938220
  27.7098430  93.1755770  13.3790680  28.9678020  93.7327490  12.7474210
  35.1707520  97.6960330  23.2717250  34.3426150  97.7653420  22.7967380
  35.7658000  98.2814640  22.8033080  32.6922970  98.3045110  16.8006310
  32.0735390  97.9664660  16.1532610  32.6747420  97.6604870  17.5085500
  32.1349530  94.4829650  24.2172120  31.7220710  95.3083360  24.4712110
  31.4025480  93.8974690  24.0248480  24.2682320  97.2689550  19.0790790
  23.8639320  96.5566800  18.5836690  24.3545440  96.9242790  19.9678830
  22.9810940  94.0432760  22.8589830  23.5325530  94.1528100  22.0843080
  23.4954450  94.4170360  23.5745060  30.8687670  97.5431920  13.8079060
  31.3080950  96.7054350  13.6616880  31.5816090  98.1761320  13.8943200
  22.6553670  97.5652120  26.4695170  22.5161440  98.4374920  26.8382570
  21.7735030  97.2224930  26.3243110  34.4504810  88.7974730  12.1220100
  34.1377470  88.8901560  13.0219170  35.2117280  89.3755760  12.0717530
  20.9686950  96.1634530  16.5797440  20.8484550  96.8896620  15.9678710
  20.6587840  95.3937440  16.1025350  35.6606100  93.5346230  28.0994240
  35.0450370  94.0425900  27.5709700  35.3402520  92.6344560  28.0420180
  23.4350610  89.5069600  19.9621110  22.9918760  90.2879140  19.6305630
  23.9935600  89.8299490  20.6692050  27.7220420  92.3738120  25.5656430
  27.2599790  92.5821140  26.3776370  27.3198530  91.5597470  25.2627100
  32.7224930  93.5947070  26.6953090  31.8718520  93.2952820  27.0162160
  32.5626720  93.8389080  25.7836910  29.8174640  95.0948820  28.7951880
  30.1428050  94.2612570  28.4554110  30.6054970  95.6177340  28.9430210
  26.5509430  89.1280300  14.8426940  25.9263610  89.1240170  15.5680250
  26.4639550  88.2611260  14.4462910  25.4726510  90.0516930  21.8210710
  25.7698840  90.9579760  21.7402730  26.0212070  89.5635710  21.2070280
  23.2264830  94.6303170  17.6902360  23.0005750  94.4140340  18.5948980
  22.4457360  95.0631630  17.3448330  30.4562590  94.6366540  16.2893010
  29.8571480  95.3602340  16.1056630  31.0042200  94.5743320  15.5069460
  25.6664040  95.5288750  28.3562630  25.5707640  94.5883480  28.2063030
  26.5096020  95.7503820  27.9610700  29.0627460  93.2730080  18.3196290
  29.4557030  93.5902280  17.5064980  29.4244310  92.3941960  18.4340810
  20.7974580  91.9402420  26.5096410  20.4037970  92.7877630  26.7169190
  20.1092980  91.3028790  26.7005050  27.3719630  92.0237390  29.5793150
  26.6817950  91.8309590  30.2139240  28.1151930  92.3072030  30.1117450
  18.0991630  89.8630880  20.5426490  17.8104680  90.4333740  21.2551470
  18.8437390  89.3835330  20.9057720  18.2861860  93.8051000  11.7529210
  18.2036530  94.7481760  11.8944200  17.9344920  93.6625910  10.8741560
  29.6482600  95.8635830  22.4147070  28.9163720  96.3722640  22.7637170
  29.2506940  95.0465810  22.1135850  26.0859990  92.5390030  20.8199560
  26.0896050  92.0979980  19.9704100  26.9811110  92.8607360  20.9271380
  21.9362370  92.4216520  19.7793770  21.5962420  92.8991750  20.5360820
  21.1739690  91.9681640  19.4194870  26.1480140  93.5402110  13.8106320
  26.2692960  93.4988590  14.7592140  25.7628650  94.4026260  13.6553050
  30.1108510  91.3169510  21.8270010  30.1281250  91.7678160  22.6711860
  29.8624090  90.4175150  22.0403450  25.1601640  95.8503250  13.2089620
  24.5918540  95.4021500  12.5825530  25.8690640  96.2096030  12.6754770
  33.5379260  88.7301690  27.6656390  33.8625030  87.9991350  28.1914370
  33.5735770  88.4115330  26.7637380  26.3867960  96.5991810  22.5664970
  26.7538090  96.1250380  23.3126310  26.1973020  97.4733380  22.9073310
  19.2508450  91.3435500  18.6958440  18.9655370  90.9791170  19.5337060
  19.1887310  90.6115960  18.0821580  24.1767330  95.6400450  24.8849180
  23.8724400  96.5192430  25.1099540  25.1313790  95.7000240  24.9206620
  28.9247040  90.2364760  15.4171810  28.1111650  89.7377930  15.3417120
  28.7308990  91.0763010  15.0008160  31.6395430  94.6084410  13.7133970
  32.5275050  94.9201640  13.5385310  31.6100520  93.7356660  13.3214550
  20.2331060  96.4803190  26.0320540  19.8746000  97.1457040  26.6193880
  19.9385620  95.6486740  26.4033160  23.4344180  96.9387430  28.9160090
  23.1344320  97.0844610  28.0187910  24.2055420  96.3792720  28.8233480
  33.9109700  95.9196250  13.1813830  33.8273420  96.3510470  12.3310270
  34.6303890  96.3794600  13.6140650  18.7439110  96.4794450  12.6555140
  19.6133960  96.7619250  12.9391060  18.2529430  97.2930320  12.5403950
  25.9073920  97.8667660  16.7763420  26.3636700  98.6772910  17.0023610
  25.5562130  97.5490800  17.6081910  21.8085700  88.2105310  17.2485940
  21.6800330  88.2023210  18.1970860  20.9847720  88.5488400  16.8976950
  18.8079630  89.9696430  26.7092640  18.0938150  90.1693350  27.3145250
  19.2274670  89.1936000  27.0807440  30.3018410  92.4618740  24.4594090
  30.6699230  91.6413950  24.7873660  29.4416610  92.5220630  24.8749740
  33.6680440  91.4175680  15.2681650  33.0393600  91.5221350  14.5539880
  33.1732360  91.6372460  16.0575530  25.6364470  93.6961630  16.6839530
  24.9280620  94.1647970  17.1253140  25.9208950  93.0383640  17.3184720
  27.2620400  95.1158330  24.6832060  27.7605650  95.5904150  25.3483910
  27.4043350  94.1921850  24.8902090  29.6679900  90.4212290  18.1235320
  29.5447680  90.4398420  17.1744830  30.6164460  90.4691230  18.2433720
  23.8399490  92.0046710  14.0590240  24.6890020  92.4416860  13.9930430
  23.4730760  92.3166970  14.8862300  34.4687260  91.3326290  25.5260450
  33.9660860  92.0731690  25.8654260  35.2843920  91.7210290  25.2097240
  32.7609270  96.5759470  18.9721810  31.8199410  96.5909700  19.1469500
  33.0753340  95.7895430  19.4182110  22.7390910  98.2579070  12.5325770
  23.5054180  98.1460430  13.0951200  22.8165600  97.5617040  11.8802540
  21.4337670  95.6904140  13.2158660  21.5141260  94.7431650  13.3276060
  22.3257420  96.0211020  13.3219320  18.9608470  97.5119060  28.4514830
  19.4647490  96.9326340  29.0231060  18.2215890  97.7959290  28.9891200
  20.9931550  95.6548650  29.3464900  21.0336890  95.3562520  30.2550130
  21.8477050  96.0556260  29.1872420  24.7709940  98.2544200  14.5068410
  25.1926360  98.0884070  15.3499800  24.8960780  97.4444430  14.0123550
  22.9337360  94.2340750  27.3139390  22.4033820  93.7431700  26.6862730
  23.6025430  94.6624950  26.7797320  27.2837580  97.2781810  11.7545510
  27.8043240  96.5630830  11.3886660  27.9305980  97.9167680  12.0546020
  32.3037590  96.0406370  29.0819730  32.8858360  95.2858690  28.9940210
  32.4799360  96.5713810  28.3051210  23.4209660  91.2003120  27.3936680
  23.3266530  90.5823870  26.6687550  22.8407050  91.9269410  27.1666590
  26.1871100  89.7576360  24.4264070  25.7388400  89.7800620  23.5809620
  25.5536300  89.3595380  25.0234370  28.9294550  96.3846870  26.4314350
  29.0490760  95.7888010  27.1709190  29.7888550  96.4216560  26.0115650
  31.2682450  96.9384060  25.0076860  30.7417670  97.4626680  24.4042000
  31.6113790  97.5711450  25.6386590  23.6668840  94.3277430  11.4526570
  23.4657900  93.4644790  11.8139910  23.4960890  94.2410790  10.5148170
  25.6963320  92.9268220  27.6890170  26.2863010  92.6184070  28.3767990
  24.8783560  92.4547970  27.8450070  30.5156750  92.5434030  27.9223190
  29.8272270  91.8815570  27.8573180  31.2362770  92.0972300  28.3671650
  31.1457150  89.1385660  13.9813450  31.4259440  88.2953560  14.3372870
  30.3722880  89.3708770  14.4952200  22.4651640  91.4278050  11.4404450
  22.7677540  91.4345480  10.5323600  23.2046230  91.0775910  11.9372110
  25.6836570  90.3712670  12.4260650  25.3358570  89.6936660  11.8463100
  25.8849340  89.9102180  13.2404040  19.0242210  96.9000320  18.8225020
  18.3691050  96.6311960  18.1784720  19.8620160  96.7904800  18.3727000
  31.9732650  91.6941610  13.0443510  32.3917530  91.5072590  12.2040170
  31.6668710  90.8420660  13.3546440  35.4722380  96.6065750  16.7419310
  35.0965980  95.8393680  16.3100600  34.7425500  96.9888450  17.2294240
  20.0618140  97.2852890  23.3628360  20.4291180  97.1980290  24.2424380
  19.4928960  96.5219440  23.2635220  34.8622000  95.7537270  26.3758830
  34.6308090  95.5250020  25.4756780  35.1226550  96.6736820  26.3303720
  19.6134140  94.1961980  27.2686780  18.7190190  94.1628740  27.6080490
  20.1531690  94.3948770  28.0338030  33.3010070  90.9793700  29.1538530
  34.1780250  90.9877100  29.5372530  33.3130910  90.2424540  28.5430880
  18.2380290  94.1099250  14.7650350  17.3344370  94.3729450  14.5902010
  18.7220910  94.3810420  13.9850310  34.7473340  94.8323240  20.0426550
  35.2710820  94.3385890  19.4116720  35.3332760  94.9673600  20.7874120
  34.9263060  94.9163110  23.5646100  33.9765770  94.8826650  23.6791090
  35.1076070  95.8263220  23.3295870  20.7807500  93.1664790  12.6744730
  21.4899200  92.7448010  12.1892010  20.0647440  93.2340020  12.0428080
  20.4281660  89.2204120  11.7147380  21.1509790  89.7613060  12.0328600
  20.7006180  88.9467540  10.8388920  34.2373310  94.0896590  15.9818960
  34.7332430  93.8567460  16.7667840  34.0389380  93.2508430  15.5656600
  20.1173850  88.4710310  21.6170000  20.7650040  87.9207690  21.1765160
  20.5375690  88.7253460  22.4385810  35.6660470  92.7257540  18.5156640
  35.5559750  92.5713580  19.4538910  36.4268060  92.1978480  18.2732050
  34.0126190  88.6651670  24.9739640  34.6498410  89.2785810  25.3398830
  34.1601080  88.7012330  24.0288870  36.5550740  90.5565460  11.7562780
  37.4800050  90.4246640  11.5481070  36.5326530  90.6358280  12.7099230
  36.6289230  91.3276120  14.3819490  35.8340730  91.2621240  14.9112400
  36.8332510  92.2626760  14.3704840  19.8705850  88.6265980  24.3595320
  19.5220670  89.0829800  25.1253500  19.5393550  87.7323110  24.4417750
  27.3830670  89.8177860  27.8814740  27.3219560  90.4099690  28.6310150
  28.3231050  89.7103820  27.7365000  30.0205230  89.4747920  27.5207030
  30.6345640  89.7927210  26.8588110  30.5654790  88.9896510  28.1402890
  20.5426490  88.1542180  27.6346090  21.0909480  87.9730230  26.8712200
  20.6081800  87.3636290  28.1702400  30.7613270  88.0380060  23.8476320
  29.8873110  88.3715170  23.6449250  30.6524020  87.5653240  24.6728190
  31.6685250  90.2450930  25.2318040  31.3398610  89.4302690  24.8519770
  32.6167550  90.2020740  25.1083730  28.5088090  88.9549900  22.7869230
  27.7259880  89.4295400  23.0665990  28.2151020  88.0504730  22.6782410
  33.0609160  89.6573000  20.8318320  33.5017250  89.6018100  19.9839920
  32.7916750  90.5731010  20.9028500  34.9247730  89.2888240  18.8427140
  34.8636130  88.3449460  18.6958160  35.7039760  89.3968330  19.3880600
  19.8528500  89.2597380  15.3082950  20.6107860  89.3726260  14.7346980
  19.3905670  90.0966580  15.2626380  26.3942310  91.3736650  18.2985260
  25.5816820  90.9993540  17.9581140  26.8983950  90.6181730  18.6006450
  30.8967290  88.0379100  19.5368330  31.4996660  88.6099310  20.0116850
  30.1560280  88.6018540  19.3142230  34.0401890  88.4400660  14.8108610
  34.2352520  89.3384110  15.0776040  33.2531760  88.2087740  15.3041560
  22.2253650  89.7861430  13.8484920  22.7546410  88.9991230  13.7192870
  22.8581970  90.4652620  14.0820450  24.4191490  89.5236570  16.9030310
  23.7894230  88.8223880  17.0700440  23.8796630  90.2840700  16.6863470
  24.5447050  88.8020550  29.3382800  24.2631320  89.3054150  28.5743620
  24.9266750  88.0042300  28.9724930  31.1462510  88.2174130  29.9163270
  31.0327960  88.5368740  30.8114790  31.9632250  88.6186640  29.6200550
  28.1838700  98.0145620   2.1607280  27.4080800  97.5346060   2.4505850
  28.8351630  97.3351270   1.9863440  22.2004530  98.3265430   3.0383040
  21.3689410  98.0714140   3.4379550  22.8085510  98.3976200   3.7740960
  18.5729490  95.8872970   2.7065130  19.1445600  95.1195170   2.7068770
  18.5731030  96.1861730   1.7971740  19.8154360  91.2957330   4.4934060
  19.6357200  90.3983080   4.7736820  19.4134440  91.8429200   5.1681010
  28.6552860  93.4973190   2.3946370  29.0317680  92.6245070   2.2820040
  28.5572370  93.8331890   1.5036810  20.4341030  93.7917830   3.1016400
  21.1151140  94.0556200   3.7203800  20.1189080  92.9518700   3.4354410
  24.6265600  94.8385190   2.1888990  25.1343820  95.3366160   2.8294010
  25.1578840  94.0620390   2.0128350  36.7276530  93.0090380   5.8918340
  36.0228700  93.3972090   5.3733450  36.9934450  93.7040670   6.4939270
  22.9101700  89.4783750   6.4552410  22.9120140  89.9956140   5.6498310
  22.0806010  89.0013930   6.4322340  32.6738460  92.9324010   2.1002250
  31.9694030  93.2208900   2.6805360  33.0350620  93.7424120   1.7401810
  22.5917030  91.1893710   4.4622860  22.9333840  92.0335760   4.1676730
  21.6532840  91.3377450   4.5788200  35.7425380  92.3778800   2.4911460
  34.7950290  92.4117780   2.6226890  36.0675370  93.1917750   2.8760820
  35.1707520  97.6960330   4.4973760  34.3426150  97.7653420   4.0223890
  35.7658000  98.2814640   4.0289590  32.1349530  94.4829650   5.4428630
  31.7220710  95.3083360   5.6968620  31.4025480  93.8974690   5.2504990
  22.9810940  94.0432760   4.0846340  23.5325530  94.1528100   3.3099590
  23.4954450  94.4170360   4.8001570  22.6553670  97.5652120   7.6951680
  22.5161440  98.4374920   8.0639080  21.7735030  97.2224930   7.5499620
  35.6606100  93.5346230   9.3250750  35.0450370  94.0425900   8.7966210
  35.3402520  92.6344560   9.2676690  27.7220420  92.3738120   6.7912940
  27.2599790  92.5821140   7.6032880  27.3198530  91.5597470   6.4883610
  32.7224930  93.5947070   7.9209600  31.8718520  93.2952820   8.2418670
  32.5626720  93.8389080   7.0093420  29.8174640  95.0948820  10.0208390
  30.1428050  94.2612570   9.6810620  30.6054970  95.6177340  10.1686720
  25.4726510  90.0516930   3.0467220  25.7698840  90.9579760   2.9659240
  26.0212070  89.5635710   2.4326790  25.6664040  95.5288750   9.5819140
  25.5707640  94.5883480   9.4319540  26.5096020  95.7503820   9.1867210
  20.7974580  91.9402420   7.7352920  20.4037970  92.7877630   7.9425700
  20.1092980  91.3028790   7.9261560  27.3719630  92.0237390  10.8049660
  26.6817950  91.8309590  11.4395750  28.1151930  92.3072030  11.3373960
  18.0991630  89.8630880   1.7683000  17.8104680  90.4333740   2.4807980
  18.8437390  89.3835330   2.1314230  29.6482600  95.8635830   3.6403580
  28.9163720  96.3722640   3.9893680  29.2506940  95.0465810   3.3392360
  30.1108510  91.3169510   3.0526520  30.1281250  91.7678160   3.8968370
  29.8624090  90.4175150   3.2659960  33.5379260  88.7301690   8.8912900
  33.8625030  87.9991350   9.4170880  33.5735770  88.4115330   7.9893890
  26.3867960  96.5991810   3.7921480  26.7538090  96.1250380   4.5382820
  26.1973020  97.4733380   4.1329820  24.1767330  95.6400450   6.1105690
  23.8724400  96.5192430   6.3356050  25.1313790  95.7000240   6.1463130
  20.2331060  96.4803190   7.2577050  19.8746000  97.1457040   7.8450390
  19.9385620  95.6486740   7.6289670  23.4344180  96.9387430  10.1416600
  23.1344320  97.0844610   9.2444420  24.2055420  96.3792720  10.0489990
  18.8079630  89.9696430   7.9349150  18.0938150  90.1693350   8.5401760
  19.2274670  89.1936000   8.3063950  30.3018410  92.4618740   5.6850600
  30.6699230  91.6413950   6.0130170  29.4416610  92.5220630   6.1006250
  27.2620400  95.1158330   5.9088570  27.7605650  95.5904150   6.5740420
  27.4043350  94.1921850   6.1158600  34.4687260  91.3326290   6.7516960
  33.9660860  92.0731690   7.0910770  35.2843920  91.7210290   6.4353750
  18.9608470  97.5119060   9.6771340  19.4647490  96.9326340  10.2487570
  18.2215890  97.7959290  10.2147710  20.9931550  95.6548650  10.5721410
  21.0336890  95.3562520  11.4806640  21.8477050  96.0556260  10.4128930
  22.9337360  94.2340750   8.5395900  22.4033820  93.7431700   7.9119240
  23.6025430  94.6624950   8.0053830  32.3037590  96.0406370  10.3076240
  32.8858360  95.2858690  10.2196720  32.4799360  96.5713810   9.5307720
  23.4209660  91.2003120   8.6193190  23.3266530  90.5823870   7.8944060
  22.8407050  91.9269410   8.3923100  26.1871100  89.7576360   5.6520580
  25.7388400  89.7800620   4.8066130  25.5536300  89.3595380   6.2490880
  28.9294550  96.3846870   7.6570860  29.0490760  95.7888010   8.3965700
  29.7888550  96.4216560   7.2372160  31.2682450  96.9384060   6.2333370
  30.7417670  97.4626680   5.6298510  31.6113790  97.5711450   6.8643100
  25.6963320  92.9268220   8.9146680  26.2863010  92.6184070   9.6024500
  24.8783560  92.4547970   9.0706580  30.5156750  92.5434030   9.1479700
  29.8272270  91.8815570   9.0829690  31.2362770  92.0972300   9.5928160
  20.0618140  97.2852890   4.5884870  20.4291180  97.1980290   5.4680890
  19.4928960  96.5219440   4.4891730  34.8622000  95.7537270   7.6015340
  34.6308090  95.5250020   6.7013290  35.1226550  96.6736820   7.5560230
  19.6134140  94.1961980   8.4943290  18.7190190  94.1628740   8.8337000
  20.1531690  94.3948770   9.2594540  33.3010070  90.9793700  10.3795040
  34.1780250  90.9877100  10.7629040  33.3130910  90.2424540   9.7687390
  34.9263060  94.9163110   4.7902610  33.9765770  94.8826650   4.9047600
  35.1076070  95.8263220   4.5552380  20.1173850  88.4710310   2.8426510
  20.7650040  87.9207690   2.4021670  20.5375690  88.7253460   3.6642320
  34.0126190  88.6651670   6.1996150  34.6498410  89.2785810   6.5655340
  34.1601080  88.7012330   5.2545380  19.8705850  88.6265980   5.5851830
  19.5220670  89.0829800   6.3510010  19.5393550  87.7323110   5.6674260
  27.3830670  89.8177860   9.1071250  27.3219560  90.4099690   9.8566660
  28.3231050  89.7103820   8.9621510  30.0205230  89.4747920   8.7463540
  30.6345640  89.7927210   8.0844620  30.5654790  88.9896510   9.3659400
  20.5426490  88.1542180   8.8602600  21.0909480  87.9730230   8.0968710
  20.6081800  87.3636290   9.3958910  30.7613270  88.0380060   5.0732830
  29.8873110  88.3715170   4.8705760  30.6524020  87.5653240   5.8984700
  31.6685250  90.2450930   6.4574550  31.3398610  89.4302690   6.0776280
  32.6167550  90.2020740   6.3340240  28.5088090  88.9549900   4.0125740
  27.7259880  89.4295400   4.2922500  28.2151020  88.0504730   3.9038920
  24.5447050  88.8020550  10.5639310  24.2631320  89.3054150   9.8000130
  24.9266750  88.0042300  10.1981440  31.1462510  88.2174130  11.1419780
  31.0327960  88.5368740  12.0371300  31.9632250  88.6186640  10.8457060
  30.0520660  77.4623110  56.6028480  29.9714710  76.5477720  56.3320190
  29.6385080  77.9590180  55.8968190  32.2046130  83.6462320  57.2636880
  31.7427660  82.8749560  57.5924050  33.0171680  83.6728390  57.7689330
  20.6096480  74.5123830  53.1455900  19.7213180  74.8539800  53.0435780
  20.8937670  74.3124150  52.2536730  28.4309440  85.9320330  56.8840870
  27.8120880  86.3877830  56.3135310  29.2861220  86.0871790  56.4830570
  22.7857870  73.0955330  54.1794280  22.8924620  73.9959060  54.4863040
  21.8750230  73.0473300  53.8888930  32.4376980  72.2180140  55.6505180
  33.2586600  71.7276710  55.6930660  32.4711060  72.8077800  56.4037020
  29.2972790  80.8159570  54.2772780  28.6790060  81.2809020  53.7135500
  29.8096040  81.5087050  54.6942290  18.6655990  81.5016100  51.6512410
  18.2883970  81.9903200  50.9197310  18.9229060  82.1741380  52.2818940
  26.2744920  69.9032490  57.1097920  26.5819900  69.3479380  56.3933420
  25.3445620  70.0376950  56.9270910  33.1205400  82.3416000  54.4895550
  33.0101730  81.3990330  54.6144970  33.1173650  82.7031640  55.3758310
  28.6625680  77.9681320  53.8458040  27.7354960  77.9018700  54.0746510
  28.8150500  78.9061450  53.7313280  28.6494760  74.2398320  50.8425200
  27.7098430  74.4012280  50.9277660  28.9678020  74.9584000  50.2961190
  32.6922970  79.5301620  54.3493290  32.0735390  79.1921170  53.7019590
  32.6747420  78.8861380  55.0572480  24.2682320  78.4946060  56.6277770
  23.8639320  77.7823310  56.1323670  24.3545440  78.1499300  57.5165810
  30.8687670  78.7688430  51.3566040  31.3080950  77.9310860  51.2103860
  31.5816090  79.4017830  51.4430180  28.9783050  83.7084500  55.3247280
  29.4178960  84.4508830  54.9102670  28.9169940  83.9511070  56.2486240
  34.4504810  70.0231240  49.6707080  34.1377470  70.1158070  50.5706150
  35.2117280  70.6012270  49.6204510  20.9686950  77.3891040  54.1284420
  20.8484550  78.1153130  53.5165690  20.6587840  76.6193950  53.6512330
  19.8519950  82.2606370  56.3459240  19.4448030  82.4020960  55.4912840
  20.7432960  81.9766530  56.1430450  31.6453230  86.6953620  52.6810290
  31.4854370  86.4056560  53.5792120  31.4799940  85.9193750  52.1455520
  24.1241610  86.4752150  54.4581910  23.9484090  85.5587690  54.2449710
  23.2697350  86.8339440  54.6979710  31.3479360  84.2041180  51.2408290
  30.6544520  84.2018470  50.5810570  32.0902220  83.7800500  50.8102460
  30.9129290  85.8303890  55.3156780  31.3686240  85.0493270  55.6295400
  31.2521810  86.5410710  55.8597960  23.4350610  70.7326110  57.5108090
  22.9918760  71.5135650  57.1792610  23.9935600  71.0556000  58.2179030
  26.5509430  70.3536810  52.3913920  25.9263610  70.3496680  53.1167230
  26.4639550  69.4867770  51.9949890  23.2264830  75.8559680  55.2389340
  23.0005750  75.6396850  56.1435960  22.4457360  76.2888140  54.8935310
  30.4562590  75.8623050  53.8379990  29.8571480  76.5858850  53.6543610
  31.0042200  75.7999830  53.0556440  29.0627460  74.4986590  55.8683270
  29.4557030  74.8158790  55.0551960  29.4244310  73.6198470  55.9827790
  18.2861860  75.0307510  49.3016190  18.2036530  75.9738270  49.4431180
  17.9344920  74.8882420  48.4228540  26.0859990  73.7646540  58.3686540
  26.0896050  73.3236490  57.5191080  26.9811110  74.0863870  58.4758360
  21.9362370  73.6473030  57.3280750  21.5962420  74.1248260  58.0847800
  21.1739690  73.1938150  56.9681850  26.1480140  74.7658620  51.3593300
  26.2692960  74.7245100  52.3079120  25.7628650  75.6282770  51.2040030
  25.1601640  77.0759760  50.7576600  24.5918540  76.6278010  50.1312510
  25.8690640  77.4352540  50.2241750  19.2508450  72.5692010  56.2445420
  18.9655370  72.2047680  57.0824040  19.1887310  71.8372470  55.6308560
  22.7049120  81.0717950  53.0303010  21.9311380  80.5315570  52.8701730
  23.4343750  80.5524560  52.6920770  28.9247040  71.4621270  52.9658790
  28.1111650  70.9634440  52.8904100  28.7308990  72.3019520  52.5495140
  31.6395430  75.8340920  51.2620950  32.5275050  76.1458150  51.0872290
  31.6100520  74.9613170  50.8701530  22.7486520  80.7398330  56.6681820
  23.2665190  79.9366590  56.6138710  22.2970540  80.6777470  57.5098650
  27.6356020  82.0064610  51.9409120  27.9771720  82.7506840  51.4452440
  26.8068730  82.3195730  52.3033950  33.9109700  77.1452760  50.7300810
  33.8273420  77.5766980  49.8797250  34.6303890  77.6051110  51.1627630
  34.9396950  83.9995020  53.4582940  34.2973110  83.3450640  53.7326660
  34.5527610  84.4050110  52.6823610  30.5183430  81.3280450  57.3054630
  30.8707250  80.7308580  56.6456000  29.6345760  81.0024680  57.4762880
  26.6046710  82.0878140  54.7125040  27.2917840  82.6347350  55.0932630
  25.8179130  82.6318870  54.7474650  18.7439110  77.7050960  50.2042120
  19.6133960  77.9875760  50.4878040  18.2529430  78.5186830  50.0890930
  25.9073920  79.0924170  54.3250400  26.3636700  79.9029420  54.5510590
  25.5562130  78.7747310  55.1568890  21.8085700  69.4361820  54.7972920
  21.6800330  69.4279720  55.7457840  20.9847720  69.7744910  54.4463930
  33.3294330  82.8911480  49.9959290  33.1031910  82.1741920  50.5883930
  32.9390530  82.6423920  49.1581040  19.1110360  86.9178340  50.7703750
  19.4708000  87.5167680  50.1161020  18.9702700  87.4638230  51.5438780
  32.9110580  80.8083420  51.6573450  32.6232280  81.2696110  52.4451330
  33.7062750  80.3481190  51.9257670  25.1278980  84.3009540  51.5877420
  25.1189080  85.0339230  50.9721930  24.2077340  84.0541120  51.6804380
  20.7285620  79.5224430  52.3324180  20.1213570  80.2623330  52.3419480
  21.2034970  79.6123790  51.5062380  33.6680440  72.6432190  52.8168630
  33.0393600  72.7477860  52.1026860  33.1732360  72.8628970  53.6062510
  28.1138580  84.3637780  50.2502610  28.2150560  84.1601770  49.3204590
  27.2140320  84.1096060  50.4550390  25.6364470  74.9218140  54.2326510
  24.9280620  75.3904480  54.6740120  25.9208950  74.2640150  54.8671700
  29.6679900  71.6468800  55.6722300  29.5447680  71.6654930  54.7231810
  30.6164460  71.6947740  55.7920700  26.7556690  86.8824100  54.9450280
  27.0098190  86.8445490  54.0229650  25.8069170  86.7557430  54.9378530
  23.8399490  73.2303220  51.6077220  24.6890020  73.6673370  51.5417410
  23.4730760  73.5423480  52.4349280  32.7609270  77.8015980  56.5208790
  31.8199410  77.8166210  56.6956480  33.0753340  77.0151940  56.9669090
  22.7390910  79.4835580  50.0812750  23.5054180  79.3716940  50.6438180
  22.8165600  78.7873550  49.4289520  21.4337670  76.9160650  50.7645640
  21.5141260  75.9688160  50.8763040  22.3257420  77.2467530  50.8706300
  22.2352380  87.0656040  57.8680180  22.9714860  86.5171500  58.1388750
  22.6193300  87.9312050  57.7286170  19.1197860  83.1329610  53.7421690
  18.1937640  83.3750750  53.7327100  19.5854290  83.9603870  53.6206440
  25.3454690  86.2386350  49.6905750  26.1383300  86.5275180  49.2387540
  24.8259040  85.8078520  49.0118230  34.3984860  85.4656480  51.1142490
  34.1126370  85.0521620  50.2996670  34.2004410  86.3944190  50.9943010
  25.8632090  81.4589760  49.5548100  25.7582730  80.8442110  50.2809480
  25.6956310  80.9355650  48.7711110  29.1034820  80.5209790  50.1590090
  28.5544920  80.9679090  50.8032830  29.7254080  80.0159040  50.6827760
  24.7709940  79.4800710  52.0555390  25.1926360  79.3140580  52.8986780
  24.8960780  78.6700940  51.5610530  27.2837580  78.5038320  49.3032490
  27.8043240  77.7887340  48.9373640  27.9305980  79.1424190  49.6033000
  23.6668840  75.5533940  49.0013550  23.4657900  74.6901300  49.3626890
  23.4960890  75.4667300  48.0635150  31.1457150  70.3642170  51.5300430
  31.4259440  69.5210070  51.8859850  30.3722880  70.5965280  52.0439180
  22.4651640  72.6534560  48.9891430  22.7677540  72.6601990  48.0810580
  23.2046230  72.3032420  49.4859090  25.6836570  71.5969180  49.9747630
  25.3358570  70.9193170  49.3950080  25.8849340  71.1358690  50.7891020
  27.8485610  86.5849930  51.5934230  28.7436400  86.9234900  51.6152990
  27.8803240  85.8629340  50.9658510  21.4881770  81.9576980  49.8221230
  21.9256640  82.5006650  50.4778810  21.9729500  81.1323930  49.8317570
  18.7027570  84.7466010  57.2741490  19.0330580  83.8787070  57.0420130
  19.1318570  84.9524530  58.1046450  23.2989490  83.0775020  54.9343460
  22.9985030  82.9539990  55.8347370  23.1926980  82.2183610  54.5259190
  36.0681410  82.8571420  49.6370140  35.2374370  82.9248070  50.1077370
  36.2453240  83.7475540  49.3337000  35.5237870  79.6018900  52.1404340
  36.2856780  80.1715550  52.2464030  35.5392240  79.0346100  52.9112650
  19.0242210  78.1256830  56.3712000  18.3691050  77.8568470  55.7271700
  19.8620160  78.0161310  55.9213980  36.5297840  80.4569000  56.9846270
  36.9006670  79.6736320  56.5782240  37.1699770  81.1458100  56.8063570
  35.5757040  79.8953270  49.2976860  35.8505880  80.8032150  49.1696080
  35.3867780  79.8315800  50.2338850  31.9732650  72.9198120  50.5930490
  32.3917530  72.7329100  49.7527150  31.6668710  72.0677170  50.9033420
  35.4722380  77.8322260  54.2906290  35.0965980  77.0650190  53.8587580
  34.7425500  78.2144960  54.7781220  18.2380290  75.3355760  52.3137330
  17.3344370  75.5985960  52.1388990  18.7220910  75.6066930  51.5337290
  34.7473340  76.0579750  57.5913530  35.2710820  75.5642400  56.9603700
  35.3332760  76.1930110  58.3361100  20.7807500  74.3921300  50.2231710
  21.4899200  73.9704520  49.7378990  20.0647440  74.4596530  49.5915060
  20.4281660  70.4460630  49.2634360  21.1509790  70.9869570  49.5815580
  20.7006180  70.1724050  48.3875900  34.2373310  75.3153100  53.5305940
  34.7332430  75.0823970  54.3154820  34.0389380  74.4764940  53.1143580
  35.6660470  73.9514050  56.0643620  35.5559750  73.7970090  57.0025890
  36.4268060  73.4234990  55.8219030  36.5550740  71.7821970  49.3049760
  37.4800050  71.6503150  49.0968050  36.5326530  71.8614790  50.2586210
  36.6289230  72.5532630  51.9306470  35.8340730  72.4877750  52.4599380
  36.8332510  73.4883270  51.9191820  33.5707650  86.5924180  55.9244860
  34.1666720  86.2708750  55.2479280  33.8285800  86.1196000  56.7158130
  33.0609160  70.8829510  58.3805300  33.5017250  70.8274610  57.5326900
  32.7916750  71.7987520  58.4515480  34.9247730  70.5144750  56.3914120
  34.8636130  69.5705970  56.2445140  35.7039760  70.6224840  56.9367580
  19.2300480  86.6537110  55.3538070  19.0622520  86.0207790  56.0519960
  18.3634990  86.8596510  55.0032260  19.8528500  70.4853890  52.8569930
  20.6107860  70.5982770  52.2833960  19.3905670  71.3223090  52.8113360
  26.3942310  72.5993160  55.8472240  25.5816820  72.2250050  55.5068120
  26.8983950  71.8438240  56.1493430  30.8967290  69.2635610  57.0855310
  31.4996660  69.8355820  57.5603830  30.1560280  69.8275050  56.8629210
  34.0401890  69.6657170  52.3595590  34.2352520  70.5640620  52.6263020
  33.2531760  69.4344250  52.8528540  20.8363180  85.3470340  52.7988210
  20.3110800  85.7278370  52.0950170  20.7607760  85.9721110  53.5197920
  22.2253650  71.0117940  51.3971900  22.7546410  70.2247740  51.2679850
  22.8581970  71.6909130  51.6307430  24.4191490  70.7493080  54.4517290
  23.7894230  70.0480390  54.6187420  23.8796630  71.5097210  54.2350450
  35.5928500  86.9057880  54.1202150  35.7680690  86.2195620  53.4763070
  34.8950070  87.4304930  53.7278820  23.4356150  87.2952720  51.6737460
  24.1674970  87.0112000  51.1261350  23.6949820  87.0566000  52.5636840
  22.5970940  83.4117450  51.6783790  21.9679820  83.8802550  52.2269620
  22.7118770  82.5666670  52.1129980  30.0520660  77.4623110  37.8284990
  29.9714710  76.5477720  37.5576700  29.6385080  77.9590180  37.1224700
  28.1838700  79.2402130  39.7094260  27.4080800  78.7602570  39.9992830
  28.8351630  78.5607780  39.5350420  22.2004530  79.5521940  40.5870020
  21.3689410  79.2970650  40.9866530  22.8085510  79.6232710  41.3227940
  32.2046130  83.6462320  38.4893390  31.7427660  82.8749560  38.8180560
  33.0171680  83.6728390  38.9945840  22.1805790  83.5862030  40.7828040
  22.4833830  82.6959770  40.6038260  22.9249380  84.1432250  40.5550290
  20.6096480  74.5123830  34.3712410  19.7213180  74.8539800  34.2692290
  20.8937670  74.3124150  33.4793240  18.5729490  77.1129480  40.2552110
  19.1445600  76.3451680  40.2555750  18.5731030  77.4118240  39.3458720
  28.4309440  85.9320330  38.1097380  27.8120880  86.3877830  37.5391820
  29.2861220  86.0871790  37.7087080  27.6247690  81.9159320  39.7164420
  27.5555970  80.9749260  39.5553550  28.3867550  82.0060730  40.2886990
  19.8154360  72.5213840  42.0421040  19.6357200  71.6239590  42.3223800
  19.4134440  73.0685710  42.7167990  28.6552860  74.7229700  39.9433350
  29.0317680  73.8501580  39.8307020  28.5572370  75.0588400  39.0523790
  22.7857870  73.0955330  35.4050790  22.8924620  73.9959060  35.7119550
  21.8750230  73.0473300  35.1145440  32.4376980  72.2180140  36.8761690
  33.2586600  71.7276710  36.9187170  32.4711060  72.8077800  37.6293530
  20.4341030  75.0174340  40.6503380  21.1151140  75.2812710  41.2690780
  20.1189080  74.1775210  40.9841390  24.6265600  76.0641700  39.7375970
  25.1343820  76.5622670  40.3780990  25.1578840  75.2876900  39.5615330
  36.7276530  74.2346890  43.4405320  36.0228700  74.6228600  42.9220430
  36.9934450  74.9297180  44.0426250  22.9101700  70.7040260  44.0039390
  22.9120140  71.2212650  43.1985290  22.0806010  70.2270440  43.9809320
  29.2972790  80.8159570  35.5029290  28.6790060  81.2809020  34.9392010
  29.8096040  81.5087050  35.9198800  24.1604550  80.3435440  42.1812890
  23.8273930  80.9704360  42.8233960  24.3371230  80.8697320  41.4014560
  32.6738460  74.1580520  39.6489230  31.9694030  74.4465410  40.2292340
  33.0350620  74.9680630  39.2888790  22.5917030  72.4150220  42.0109840
  22.9333840  73.2592270  41.7163710  21.6532840  72.5633960  42.1275180
  23.3723650  82.3116240  43.9962070  23.9897650  82.9867320  43.7146520
  22.5116770  82.7204220  43.9049570  18.6655990  81.5016100  32.8768920
  18.2883970  81.9903200  32.1453820  18.9229060  82.1741380  33.5075450
  34.2901240  83.7755650  41.9116710  33.6064760  84.4454760  41.9033380
  34.8295530  83.9736300  41.1461570  35.7425380  73.6035310  40.0398440
  34.7950290  73.6374290  40.1713870  36.0675370  74.4174260  40.4247800
  26.2744920  69.9032490  38.3354430  26.5819900  69.3479380  37.6189930
  25.3445620  70.0376950  38.1527420  31.8259980  85.6199780  40.6261890
  31.8387140  85.2162070  39.7584150  31.2735200  86.3947070  40.5223320
  33.1205400  82.3416000  35.7152060  33.0101730  81.3990330  35.8401480
  33.1173650  82.7031640  36.6014820  31.2245420  80.5229620  41.9544500
  31.6414210  80.3089730  41.1197960  31.9485240  80.7802410  42.5253120
  28.6625680  77.9681320  35.0714550  27.7354960  77.9018700  35.3003020
  28.8150500  78.9061450  34.9569790  28.6494760  74.2398320  32.0681710
  27.7098430  74.4012280  32.1534170  28.9678020  74.9584000  31.5217700
  35.1707520  78.9216840  42.0460740  34.3426150  78.9909930  41.5710870
  35.7658000  79.5071150  41.5776570  32.6922970  79.5301620  35.5749800
  32.0735390  79.1921170  34.9276100  32.6747420  78.8861380  36.2828990
  32.1349530  75.7086160  42.9915610  31.7220710  76.5339870  43.2455600
  31.4025480  75.1231200  42.7991970  24.2682320  78.4946060  37.8534280
  23.8639320  77.7823310  37.3580180  24.3545440  78.1499300  38.7422320
  24.7364020  82.1813620  40.0173490  24.4392310  81.5759090  39.3381270
  25.6863840  82.2190930  39.9062850  22.9810940  75.2689270  41.6333320
  23.5325530  75.3784610  40.8586570  23.4954450  75.6426870  42.3488550
  32.8249630  85.7545490  43.6796590  32.3480190  86.5617680  43.4869200
  32.1411420  85.1023820  43.8322800  23.8282450  81.9195310  46.6681290
  22.9310980  82.1435280  46.9154690  23.8535320  82.0430250  45.7192690
  30.8687670  78.7688430  32.5822550  31.3080950  77.9310860  32.4360370
  31.5816090  79.4017830  32.6686690  22.6553670  78.7908630  45.2438660
  22.5161440  79.6631430  45.6126060  21.7735030  78.4481440  45.0986600
  28.9783050  83.7084500  36.5503790  29.4178960  84.4508830  36.1359180
  28.9169940  83.9511070  37.4742750  24.4534020  84.7330330  47.4523810
  24.4249450  85.1373280  46.5852240  24.2898990  83.8040690  47.2895410
  20.9686950  77.3891040  35.3540930  20.8484550  78.1153130  34.7422200
  20.6587840  76.6193950  34.8768840  36.4048840  85.5157430  48.7487980
  36.8808560  85.9940320  49.4277060  37.0256000  85.4474920  48.0233480
  18.6072320  80.5606180  41.1609570  18.6852740  80.6954950  40.2165290
  19.2214000  79.8522070  41.3537690  19.8519950  82.2606370  37.5715750
  19.4448030  82.4020960  36.7169350  20.7432960  81.9766530  37.3686960
  35.8082090  82.7070280  45.9087990  35.9345150  82.4682160  44.9905170
  35.8503470  81.8754820  46.3810070  29.6698830  86.4098280  44.4782800
  30.1843500  86.3206290  45.2805230  28.8267910  86.7557980  44.7710710
  31.6453230  86.6953620  33.9066800  31.4854370  86.4056560  34.8048630
  31.4799940  85.9193750  33.3712030  24.1241610  86.4752150  35.6838420
  23.9484090  85.5587690  35.4706220  23.2697350  86.8339440  35.9236220
  31.3479360  84.2041180  32.4664800  30.6544520  84.2018470  31.8067080
  32.0902220  83.7800500  32.0358970  30.9129290  85.8303890  36.5413290
  31.3686240  85.0493270  36.8551910  31.2521810  86.5410710  37.0854470
  35.6606100  74.7602740  46.8737730  35.0450370  75.2682410  46.3453190
  35.3402520  73.8601070  46.8163670  18.6631840  81.6020350  43.7004030
  18.8262880  81.1325710  42.8823400  19.1284290  81.0943910  44.3652870
  23.4350610  70.7326110  38.7364600  22.9918760  71.5135650  38.4049120
  23.9935600  71.0556000  39.4435540  27.7220420  73.5994630  44.3399920
  27.2599790  73.8077650  45.1519860  27.3198530  72.7853980  44.0370590
  32.7224930  74.8203580  45.4696580  31.8718520  74.5209330  45.7905650
  32.5626720  75.0645590  44.5580400  29.8174640  76.3205330  47.5695370
  30.1428050  75.4869080  47.2297600  30.6054970  76.8433850  47.7173700
  26.5509430  70.3536810  33.6170430  25.9263610  70.3496680  34.3423740
  26.4639550  69.4867770  33.2206400  25.4726510  71.2773440  40.5954200
  25.7698840  72.1836270  40.5146220  26.0212070  70.7892220  39.9813770
  23.2264830  75.8559680  36.4645850  23.0005750  75.6396850  37.3692470
  22.4457360  76.2888140  36.1191820  30.4562590  75.8623050  35.0636500
  29.8571480  76.5858850  34.8800120  31.0042200  75.7999830  34.2812950
  25.6664040  76.7545260  47.1306120  25.5707640  75.8139990  46.9806520
  26.5096020  76.9760330  46.7354190  29.0627460  74.4986590  37.0939780
  29.4557030  74.8158790  36.2808470  29.4244310  73.6198470  37.2084300
  20.7974580  73.1658930  45.2839900  20.4037970  74.0134140  45.4912680
  20.1092980  72.5285300  45.4748540  27.3719630  73.2493900  48.3536640
  26.6817950  73.0566100  48.9882730  28.1151930  73.5328540  48.8860940
  18.0991630  71.0887390  39.3169980  17.8104680  71.6590250  40.0294960
  18.8437390  70.6091840  39.6801210  18.2861860  75.0307510  30.5272700
  18.2036530  75.9738270  30.6687690  17.9344920  74.8882420  29.6485050
  29.6482600  77.0892340  41.1890560  28.9163720  77.5979150  41.5380660
  29.2506940  76.2722320  40.8879340  26.0859990  73.7646540  39.5943050
  26.0896050  73.3236490  38.7447590  26.9811110  74.0863870  39.7014870
  21.9362370  73.6473030  38.5537260  21.5962420  74.1248260  39.3104310
  21.1739690  73.1938150  38.1938360  26.1480140  74.7658620  32.5849810
  26.2692960  74.7245100  33.5335630  25.7628650  75.6282770  32.4296540
  30.1108510  72.5426020  40.6013500  30.1281250  72.9934670  41.4455350
  29.8624090  71.6431660  40.8146940  25.1601640  77.0759760  31.9833110
  24.5918540  76.6278010  31.3569020  25.8690640  77.4352540  31.4498260
  33.5379260  69.9558200  46.4399880  33.8625030  69.2247860  46.9657860
  33.5735770  69.6371840  45.5380870  20.2370820  80.9771780  45.8599840
  19.8525610  80.3365450  46.4582800  20.5483010  81.6807900  46.4294570
  26.3867960  77.8248320  41.3408460  26.7538090  77.3506890  42.0869800
  26.1973020  78.6989890  41.6816800  19.2508450  72.5692010  37.4701930
  18.9655370  72.2047680  38.3080550  19.1887310  71.8372470  36.8565070
  24.1767330  76.8656960  43.6592670  23.8724400  77.7448940  43.8843030
  25.1313790  76.9256750  43.6950110  22.7049120  81.0717950  34.2559520
  21.9311380  80.5315570  34.0958240  23.4343750  80.5524560  33.9177280
  33.4637100  80.0683310  40.0485910  34.1836220  80.5638600  39.6582020
  33.2618920  79.3901200  39.4039780  28.9247040  71.4621270  34.1915300
  28.1111650  70.9634440  34.1160610  28.7308990  72.3019520  33.7751650
  28.8455900  80.1392370  45.9354910  28.7793210  79.2188040  45.6812500
  28.2161040  80.2367810  46.6499550  31.6395430  75.8340920  32.4877460
  32.5275050  76.1458150  32.3128800  31.6100520  74.9613170  32.0958040
  22.7486520  80.7398330  37.8938330  23.2665190  79.9366590  37.8395220
  22.2970540  80.6777470  38.7355160  27.6356020  82.0064610  33.1665630
  27.9771720  82.7506840  32.6708950  26.8068730  82.3195730  33.5290460
  20.2331060  77.7059700  44.8064030  19.8746000  78.3713550  45.3937370
  19.9385620  76.8743250  45.1776650  23.4344180  78.1643940  47.6903580
  23.1344320  78.3101120  46.7931400  24.2055420  77.6049230  47.5976970
  28.7772630  82.9612940  45.6858710  28.7917170  82.0293900  45.4677620
  28.0697730  83.0472700  46.3248480  33.9109700  77.1452760  31.9557320
  33.8273420  77.5766980  31.1053760  34.6303890  77.6051110  32.3884140
  34.9883840  79.6020280  45.0327290  34.2632030  80.1949060  44.8356680
  35.5159300  79.5943820  44.2340660  34.9396950  83.9995020  34.6839450
  34.2973110  83.3450640  34.9583170  34.5527610  84.4050110  33.9080120
  30.5183430  81.3280450  38.5311140  30.8707250  80.7308580  37.8712510
  29.6345760  81.0024680  38.7019390  26.6046710  82.0878140  35.9381550
  27.2917840  82.6347350  36.3189140  25.8179130  82.6318870  35.9731160
  18.7439110  77.7050960  31.4298630  19.6133960  77.9875760  31.7134550
  18.2529430  78.5186830  31.3147440  25.9073920  79.0924170  35.5506910
  26.3636700  79.9029420  35.7767100  25.5562130  78.7747310  36.3825400
  28.2106530  84.6030510  42.7799210  28.8548750  84.8089890  43.4572630
  28.5735970  83.8418910  42.3270060  21.8085700  69.4361820  36.0229430
  21.6800330  69.4279720  36.9714350  20.9847720  69.7744910  35.6720440
  29.4838610  82.6062860  41.4976660  30.1260840  81.9056020  41.6108830
  30.0087960  83.3861300  41.3173550  33.3294330  82.8911480  31.2215800
  33.1031910  82.1741920  31.8140440  32.9390530  82.6423920  30.3837550
  31.2576230  83.4057760  44.7012720  31.5932470  83.9924450  45.3790640
  30.3376570  83.2750470  44.9310510  19.1110360  86.9178340  31.9960260
  19.4708000  87.5167680  31.3417530  18.9702700  87.4638230  32.7695290
  18.8079630  71.1952940  45.4836130  18.0938150  71.3949860  46.0888740
  19.2274670  70.4192510  45.8550930  32.9110580  80.8083420  32.8829960
  32.6232280  81.2696110  33.6707840  33.7062750  80.3481190  33.1514180
  19.0952220  85.1833200  46.4702660  19.2043340  84.2427940  46.3298050
  18.4432780  85.4487950  45.8216390  27.0864810  83.4549090  47.8700780
  26.7661680  82.7358330  48.4146470  26.4123170  84.1304160  47.9436840
  25.1278980  84.3009540  32.8133930  25.1189080  85.0339230  32.1978440
  24.2077340  84.0541120  32.9060890  20.7285620  79.5224430  33.5580690
  20.1213570  80.2623330  33.5675990  21.2034970  79.6123790  32.7318890
  30.3018410  73.6875250  43.2337580  30.6699230  72.8670460  43.5617150
  29.4416610  73.7477140  43.6493230  33.6680440  72.6432190  34.0425140
  33.0393600  72.7477860  33.3283370  33.1732360  72.8628970  34.8319020
  28.1138580  84.3637780  31.4759120  28.2150560  84.1601770  30.5461100
  27.2140320  84.1096060  31.6806900  25.6364470  74.9218140  35.4583020
  24.9280620  75.3904480  35.8996630  25.9208950  74.2640150  36.0928210
  27.2620400  76.3414840  43.4575550  27.7605650  76.8160660  44.1227400
  27.4043350  75.4178360  43.6645580  29.6679900  71.6468800  36.8978810
  29.5447680  71.6654930  35.9488320  30.6164460  71.6947740  37.0177210
  26.7556690  86.8824100  36.1706790  27.0098190  86.8445490  35.2486160
  25.8069170  86.7557430  36.1635040  23.8399490  73.2303220  32.8333730
  24.6890020  73.6673370  32.7673920  23.4730760  73.5423480  33.6605790
  34.4687260  72.5582800  44.3003940  33.9660860  73.2988200  44.6397750
  35.2843920  72.9466800  43.9840730  32.7609270  77.8015980  37.7465300
  31.8199410  77.8166210  37.9212990  33.0753340  77.0151940  38.1925600
  22.7390910  79.4835580  31.3069260  23.5054180  79.3716940  31.8694690
  22.8165600  78.7873550  30.6546030  21.4337670  76.9160650  31.9902150
  21.5141260  75.9688160  32.1019550  22.3257420  77.2467530  32.0962810
  34.7634850  84.9724830  39.4219560  34.8882270  85.7956000  39.8943370
  35.6300410  84.7615560  39.0743710  22.2352380  87.0656040  39.0936690
  22.9714860  86.5171500  39.3645260  22.6193300  87.9312050  38.9542680
  19.1197860  83.1329610  34.9678200  18.1937640  83.3750750  34.9583610
  19.5854290  83.9603870  34.8462950  21.2410660  86.2502110  48.2822270
  22.0423390  86.5714160  48.6957670  20.7262480  85.8897690  49.0042180
  25.3454690  86.2386350  30.9162260  26.1383300  86.5275180  30.4644050
  24.8259040  85.8078520  30.2374740  30.0775290  82.3581980  48.2297680
  29.4713450  82.3813580  47.4893430  29.7729400  81.6265020  48.7664930
  31.5075660  86.0862270  46.8407090  32.4597410  86.0020290  46.7907330
  31.3603880  86.7503980  47.5140880  34.3984860  85.4656480  32.3399000
  34.1126370  85.0521620  31.5253180  34.2004410  86.3944190  32.2199520
  18.9608470  78.7375570  47.2258320  19.4647490  78.1582850  47.7974550
  18.2215890  79.0215800  47.7634690  25.8632090  81.4589760  30.7804610
  25.7582730  80.8442110  31.5065990  25.6956310  80.9355650  29.9967620
  26.0146410  80.1446560  46.7593840  25.2492080  80.7131560  46.6748510
  26.1962370  79.8522770  45.8662070  29.1034820  80.5209790  31.3846600
  28.5544920  80.9679090  32.0289340  29.7254080  80.0159040  31.9084270
  33.1569760  81.8751890  47.3168860  33.8979230  82.2127650  46.8136320
  32.3942440  82.0443950  46.7638630  20.9931550  76.8805160  48.1208390
  21.0336890  76.5819030  49.0293620  21.8477050  77.2812770  47.9615910
  24.7709940  79.4800710  33.2811900  25.1926360  79.3140580  34.1243290
  24.8960780  78.6700940  32.7867040  22.9337360  75.4597260  46.0882880
  22.4033820  74.9688210  45.4606220  23.6025430  75.8881460  45.5540810
  27.2837580  78.5038320  30.5289000  27.8043240  77.7887340  30.1630150
  27.9305980  79.1424190  30.8289510  31.8315420  79.9266720  45.8524070
  32.2456440  80.0811800  46.7014490  30.8966420  80.0521940  46.0149850
  32.3037590  77.2662880  47.8563220  32.8858360  76.5115200  47.7683700
  32.4799360  77.7970320  47.0794700  23.4209660  72.4259630  46.1680170
  23.3266530  71.8080380  45.4431040  22.8407050  73.1525920  45.9410080
  26.1871100  70.9832870  43.2007560  25.7388400  71.0057130  42.3553110
  25.5536300  70.5851890  43.7977860  26.5930650  79.8787200  43.8220000
  27.0118760  80.7219930  43.6496240  25.6739280  80.0159240  43.5926780
  28.9294550  77.6103380  45.2057840  29.0490760  77.0144520  45.9452680
  29.7888550  77.6473070  44.7859140  31.2682450  78.1640570  43.7820350
  30.7417670  78.6883190  43.1785490  31.6113790  78.7967960  44.4130080
  23.6668840  75.5533940  30.2270060  23.4657900  74.6901300  30.5883400
  23.4960890  75.4667300  29.2891660  24.4438070  86.1840210  44.9377730
  23.9059160  86.9086270  44.6186430  24.6972030  85.7070550  44.1475070
  25.6963320  74.1524730  46.4633660  26.2863010  73.8440580  47.1511480
  24.8783560  73.6804480  46.6193560  30.5156750  73.7690540  46.6966680
  29.8272270  73.1072080  46.6316670  31.2362770  73.3228810  47.1415140
  31.1457150  70.3642170  32.7556940  31.4259440  69.5210070  33.1116360
  30.3722880  70.5965280  33.2695690  22.4651640  72.6534560  30.2147940
  22.7677540  72.6601990  29.3067090  23.2046230  72.3032420  30.7115600
  27.3000280  87.4191420  45.1964380  27.2258980  88.3226560  45.5036750
  26.3979120  87.1003320  45.1686450  25.6836570  71.5969180  31.2004140
  25.3358570  70.9193170  30.6206590  25.8849340  71.1358690  32.0147530
  27.8485610  86.5849930  32.8190740  28.7436400  86.9234900  32.8409500
  27.8803240  85.8629340  32.1915020  21.4881770  81.9576980  31.0477740
  21.9256640  82.5006650  31.7035320  21.9729500  81.1323930  31.0574080
  18.7027570  84.7466010  38.4998000  19.0330580  83.8787070  38.2676640
  19.1318570  84.9524530  39.3302960  23.2989490  83.0775020  36.1599970
  22.9985030  82.9539990  37.0603880  23.1926980  82.2183610  35.7515700
  19.1917780  85.6136600  41.2379630  18.7548770  85.7937400  42.0703780
  19.7595460  86.3711220  41.0961350  34.8279960  85.1153600  45.5256940
  34.2281950  85.1746160  44.7820860  34.9573860  84.1758580  45.6553790
  36.0681410  82.8571420  30.8626650  35.2374370  82.9248070  31.3333880
  36.2453240  83.7475540  30.5593510  35.5237870  79.6018900  33.3660850
  36.2856780  80.1715550  33.4720540  35.5392240  79.0346100  34.1369160
  19.0242210  78.1256830  37.5968510  18.3691050  77.8568470  36.9528210
  19.8620160  78.0161310  37.1470490  36.5297840  80.4569000  38.2102780
  36.9006670  79.6736320  37.8038750  37.1699770  81.1458100  38.0320080
  33.5131600  81.8405580  43.6233100  32.6991440  82.2702740  43.8858890
  33.9205800  82.4523990  43.0102150  35.5757040  79.8953270  30.5233370
  35.8505880  80.8032150  30.3952590  35.3867780  79.8315800  31.4595360
  31.9732650  72.9198120  31.8187000  32.3917530  72.7329100  30.9783660
  31.6668710  72.0677170  32.1289930  35.4722380  77.8322260  35.5162800
  35.0965980  77.0650190  35.0844090  34.7425500  78.2144960  36.0037730
  20.0618140  78.5109400  42.1371850  20.4291180  78.4236800  43.0167870
  19.4928960  77.7475950  42.0378710  34.8622000  76.9793780  45.1502320
  34.6308090  76.7506530  44.2500270  35.1226550  77.8993330  45.1047210
  19.6134140  75.4218490  46.0430270  18.7190190  75.3885250  46.3823980
  20.1531690  75.6205280  46.8081520  33.3010070  72.2050210  47.9282020
  34.1780250  72.2133610  48.3116020  33.3130910  71.4681050  47.3174370
  18.2380290  75.3355760  33.5393840  17.3344370  75.5985960  33.3645500
  18.7220910  75.6066930  32.7593800  34.7473340  76.0579750  38.8170040
  35.2710820  75.5642400  38.1860210  35.3332760  76.1930110  39.5617610
  34.9263060  76.1419620  42.3389590  33.9765770  76.1083160  42.4534580
  35.1076070  77.0519730  42.1039360  20.7807500  74.3921300  31.4488220
  21.4899200  73.9704520  30.9635500  20.0647440  74.4596530  30.8171570
  20.4281660  70.4460630  30.4890870  21.1509790  70.9869570  30.8072090
  20.7006180  70.1724050  29.6132410  34.2373310  75.3153100  34.7562450
  34.7332430  75.0823970  35.5411330  34.0389380  74.4764940  34.3400090
  20.1173850  69.6966820  40.3913490  20.7650040  69.1464200  39.9508650
  20.5375690  69.9509970  41.2129300  35.6660470  73.9514050  37.2900130
  35.5559750  73.7970090  38.2282400  36.4268060  73.4234990  37.0475540
  34.0126190  69.8908180  43.7483130  34.6498410  70.5042320  44.1142320
  34.1601080  69.9268840  42.8032360  36.5550740  71.7821970  30.5306270
  37.4800050  71.6503150  30.3224560  36.5326530  71.8614790  31.4842720
  36.6289230  72.5532630  33.1562980  35.8340730  72.4877750  33.6855890
  36.8332510  73.4883270  33.1448330  33.5707650  86.5924180  37.1501370
  34.1666720  86.2708750  36.4735790  33.8285800  86.1196000  37.9414640
  19.8705850  69.8522490  43.1338810  19.5220670  70.3086310  43.8996990
  19.5393550  68.9579620  43.2161240  21.4770220  83.0242090  47.2992000
  21.4339850  82.6535000  48.1806460  21.6081230  83.9619660  47.4393820
  25.1776250  84.5801680  42.9001720  24.9367610  84.8476240  42.0132240
  26.1178890  84.7507410  42.9552580  27.3830670  71.0434370  46.6558230
  27.3219560  71.6356200  47.4053640  28.3231050  70.9360330  46.5108490
  30.0205230  70.7004430  46.2950520  30.6345640  71.0183720  45.6331600
  30.5654790  70.2153020  46.9146380  36.4380410  86.5996060  43.7012360
  35.9438690  86.9964930  42.9839490  35.8293700  85.9745270  44.0949640
  20.5426490  69.3798690  46.4089580  21.0909480  69.1986740  45.6455690
  20.6081800  68.5892800  46.9445890  21.3158250  85.9704340  44.4189780
  20.7218570  85.8389040  45.1579820  21.3082090  85.1342480  43.9531880
  30.7613270  69.2636570  42.6219810  29.8873110  69.5971680  42.4192740
  30.6524020  68.7909750  43.4471680  31.6685250  71.4707440  44.0061530
  31.3398610  70.6559200  43.6263260  32.6167550  71.4277250  43.8827220
  34.1219860  87.2419480  40.9799100  33.6622830  87.9935290  40.6057120
  33.4932320  86.5225950  40.9213900  20.9470480  83.3362720  43.3697820
  20.2204540  82.7168010  43.3023770  21.0079630  83.7303330  42.4995900
  24.5515580  85.5507720  40.1547230  25.0680600  84.9395080  39.6295490
  25.2012960  86.0536500  40.6458240  27.2911080  86.4416210  40.9816210
  27.5788890  86.1870510  40.1049220  27.8034300  85.8893570  41.5721780
  28.5088090  70.1806410  41.5612720  27.7259880  70.6551910  41.8409480
  28.2151020  69.2761240  41.4525900  33.0609160  70.8829510  39.6061810
  33.5017250  70.8274610  38.7583410  32.7916750  71.7987520  39.6771990
  34.9247730  70.5144750  37.6170630  34.8636130  69.5705970  37.4701650
  35.7039760  70.6224840  38.1624090  19.2300480  86.6537110  36.5794580
  19.0622520  86.0207790  37.2776470  18.3634990  86.8596510  36.2288770
  19.8528500  70.4853890  34.0826440  20.6107860  70.5982770  33.5090470
  19.3905670  71.3223090  34.0369870  26.3942310  72.5993160  37.0728750
  25.5816820  72.2250050  36.7324630  26.8983950  71.8438240  37.3749940
  30.8967290  69.2635610  38.3111820  31.4996660  69.8355820  38.7860340
  30.1560280  69.8275050  38.0885720  34.0401890  69.6657170  33.5852100
  34.2352520  70.5640620  33.8519530  33.2531760  69.4344250  34.0785050
  20.8363180  85.3470340  34.0244720  20.3110800  85.7278370  33.3206680
  20.7607760  85.9721110  34.7454430  22.2253650  71.0117940  32.6228410
  22.7546410  70.2247740  32.4936360  22.8581970  71.6909130  32.8563940
  24.4191490  70.7493080  35.6773800  23.7894230  70.0480390  35.8443930
  23.8796630  71.5097210  35.4606960  27.3583440  87.3632310  48.3484410
  28.2850750  87.1276580  48.3920370  27.3433870  88.1904310  47.8670440
  35.5928500  86.9057880  35.3458660  35.7680690  86.2195620  34.7019580
  34.8950070  87.4304930  34.9535330  24.5447050  70.0277060  48.1126290
  24.2631320  70.5310660  47.3487110  24.9266750  69.2298810  47.7468420
  23.4356150  87.2952720  32.8993970  24.1674970  87.0112000  32.3517860
  23.6949820  87.0566000  33.7893350  22.5970940  83.4117450  32.9040300
  21.9679820  83.8802550  33.4526130  22.7118770  82.5666670  33.3386490
  31.1462510  69.4430640  48.6906760  31.0327960  69.7625250  49.5858280
  31.9632250  69.8443150  48.3944040  33.9261000  86.5902170  48.1725450
  34.7186320  86.0951400  47.9651410  34.2194150  87.2692310  48.7801060
  30.0520660  77.4623110  19.0541500  29.9714710  76.5477720  18.7833210
  29.6385080  77.9590180  18.3481210  28.1838700  79.2402130  20.9350770
  27.4080800  78.7602570  21.2249340  28.8351630  78.5607780  20.7606930
  22.2004530  79.5521940  21.8126530  21.3689410  79.2970650  22.2123040
  22.8085510  79.6232710  22.5484450  32.2046130  83.6462320  19.7149900
  31.7427660  82.8749560  20.0437070  33.0171680  83.6728390  20.2202350
  22.1805790  83.5862030  22.0084550  22.4833830  82.6959770  21.8294770
  22.9249380  84.1432250  21.7806800  20.6096480  74.5123830  15.5968920
  19.7213180  74.8539800  15.4948800  20.8937670  74.3124150  14.7049750
  18.5729490  77.1129480  21.4808620  19.1445600  76.3451680  21.4812260
  18.5731030  77.4118240  20.5715230  28.4309440  85.9320330  19.3353890
  27.8120880  86.3877830  18.7648330  29.2861220  86.0871790  18.9343590
  27.6247690  81.9159320  20.9420930  27.5555970  80.9749260  20.7810060
  28.3867550  82.0060730  21.5143500  19.8154360  72.5213840  23.2677550
  19.6357200  71.6239590  23.5480310  19.4134440  73.0685710  23.9424500
  28.6552860  74.7229700  21.1689860  29.0317680  73.8501580  21.0563530
  28.5572370  75.0588400  20.2780300  22.7857870  73.0955330  16.6307300
  22.8924620  73.9959060  16.9376060  21.8750230  73.0473300  16.3401950
  32.4376980  72.2180140  18.1018200  33.2586600  71.7276710  18.1443680
  32.4711060  72.8077800  18.8550040  20.4341030  75.0174340  21.8759890
  21.1151140  75.2812710  22.4947290  20.1189080  74.1775210  22.2097900
  24.6265600  76.0641700  20.9632480  25.1343820  76.5622670  21.6037500
  25.1578840  75.2876900  20.7871840  36.7276530  74.2346890  24.6661830
  36.0228700  74.6228600  24.1476940  36.9934450  74.9297180  25.2682760
  22.9101700  70.7040260  25.2295900  22.9120140  71.2212650  24.4241800
  22.0806010  70.2270440  25.2065830  29.2972790  80.8159570  16.7285800
  28.6790060  81.2809020  16.1648520  29.8096040  81.5087050  17.1455310
  24.1604550  80.3435440  23.4069400  23.8273930  80.9704360  24.0490470
  24.3371230  80.8697320  22.6271070  32.6738460  74.1580520  20.8745740
  31.9694030  74.4465410  21.4548850  33.0350620  74.9680630  20.5145300
  22.5917030  72.4150220  23.2366350  22.9333840  73.2592270  22.9420220
  21.6532840  72.5633960  23.3531690  23.3723650  82.3116240  25.2218580
  23.9897650  82.9867320  24.9403030  22.5116770  82.7204220  25.1306080
  18.6655990  81.5016100  14.1025430  18.2883970  81.9903200  13.3710330
  18.9229060  82.1741380  14.7331960  34.2901240  83.7755650  23.1373220
  33.6064760  84.4454760  23.1289890  34.8295530  83.9736300  22.3718080
  35.7425380  73.6035310  21.2654950  34.7950290  73.6374290  21.3970380
  36.0675370  74.4174260  21.6504310  26.2744920  69.9032490  19.5610940
  26.5819900  69.3479380  18.8446440  25.3445620  70.0376950  19.3783930
  31.8259980  85.6199780  21.8518400  31.8387140  85.2162070  20.9840660
  31.2735200  86.3947070  21.7479830  33.1205400  82.3416000  16.9408570
  33.0101730  81.3990330  17.0657990  33.1173650  82.7031640  17.8271330
  31.2245420  80.5229620  23.1801010  31.6414210  80.3089730  22.3454470
  31.9485240  80.7802410  23.7509630  28.6625680  77.9681320  16.2971060
  27.7354960  77.9018700  16.5259530  28.8150500  78.9061450  16.1826300
  28.6494760  74.2398320  13.2938220  27.7098430  74.4012280  13.3790680
  28.9678020  74.9584000  12.7474210  35.1707520  78.9216840  23.2717250
  34.3426150  78.9909930  22.7967380  35.7658000  79.5071150  22.8033080
  32.6922970  79.5301620  16.8006310  32.0735390  79.1921170  16.1532610
  32.6747420  78.8861380  17.5085500  32.1349530  75.7086160  24.2172120
  31.7220710  76.5339870  24.4712110  31.4025480  75.1231200  24.0248480
  24.2682320  78.4946060  19.0790790  23.8639320  77.7823310  18.5836690
  24.3545440  78.1499300  19.9678830  24.7364020  82.1813620  21.2430000
  24.4392310  81.5759090  20.5637780  25.6863840  82.2190930  21.1319360
  22.9810940  75.2689270  22.8589830  23.5325530  75.3784610  22.0843080
  23.4954450  75.6426870  23.5745060  32.8249630  85.7545490  24.9053100
  32.3480190  86.5617680  24.7125710  32.1411420  85.1023820  25.0579310
  23.8282450  81.9195310  27.8937800  22.9310980  82.1435280  28.1411200
  23.8535320  82.0430250  26.9449200  30.8687670  78.7688430  13.8079060
  31.3080950  77.9310860  13.6616880  31.5816090  79.4017830  13.8943200
  22.6553670  78.7908630  26.4695170  22.5161440  79.6631430  26.8382570
  21.7735030  78.4481440  26.3243110  28.9783050  83.7084500  17.7760300
  29.4178960  84.4508830  17.3615690  28.9169940  83.9511070  18.6999260
  24.4534020  84.7330330  28.6780320  24.4249450  85.1373280  27.8108750
  24.2898990  83.8040690  28.5151920  34.4504810  70.0231240  12.1220100
  34.1377470  70.1158070  13.0219170  35.2117280  70.6012270  12.0717530
  20.9686950  77.3891040  16.5797440  20.8484550  78.1153130  15.9678710
  20.6587840  76.6193950  16.1025350  36.4048840  85.5157430  29.9744490
  36.8808560  85.9940320  30.6533570  37.0256000  85.4474920  29.2489990
  18.6072320  80.5606180  22.3866080  18.6852740  80.6954950  21.4421800
  19.2214000  79.8522070  22.5794200  19.8519950  82.2606370  18.7972260
  19.4448030  82.4020960  17.9425860  20.7432960  81.9766530  18.5943470
  35.8082090  82.7070280  27.1344500  35.9345150  82.4682160  26.2161680
  35.8503470  81.8754820  27.6066580  29.6698830  86.4098280  25.7039310
  30.1843500  86.3206290  26.5061740  28.8267910  86.7557980  25.9967220
  31.6453230  86.6953620  15.1323310  31.4854370  86.4056560  16.0305140
  31.4799940  85.9193750  14.5968540  24.1241610  86.4752150  16.9094930
  23.9484090  85.5587690  16.6962730  23.2697350  86.8339440  17.1492730
  31.3479360  84.2041180  13.6921310  30.6544520  84.2018470  13.0323590
  32.0902220  83.7800500  13.2615480  30.9129290  85.8303890  17.7669800
  31.3686240  85.0493270  18.0808420  31.2521810  86.5410710  18.3110980
  35.6606100  74.7602740  28.0994240  35.0450370  75.2682410  27.5709700
  35.3402520  73.8601070  28.0420180  18.6631840  81.6020350  24.9260540
  18.8262880  81.1325710  24.1079910  19.1284290  81.0943910  25.5909380
  23.4350610  70.7326110  19.9621110  22.9918760  71.5135650  19.6305630
  23.9935600  71.0556000  20.6692050  27.7220420  73.5994630  25.5656430
  27.2599790  73.8077650  26.3776370  27.3198530  72.7853980  25.2627100
  32.7224930  74.8203580  26.6953090  31.8718520  74.5209330  27.0162160
  32.5626720  75.0645590  25.7836910  29.8174640  76.3205330  28.7951880
  30.1428050  75.4869080  28.4554110  30.6054970  76.8433850  28.9430210
  26.5509430  70.3536810  14.8426940  25.9263610  70.3496680  15.5680250
  26.4639550  69.4867770  14.4462910  25.4726510  71.2773440  21.8210710
  25.7698840  72.1836270  21.7402730  26.0212070  70.7892220  21.2070280
  23.2264830  75.8559680  17.6902360  23.0005750  75.6396850  18.5948980
  22.4457360  76.2888140  17.3448330  30.4562590  75.8623050  16.2893010
  29.8571480  76.5858850  16.1056630  31.0042200  75.7999830  15.5069460
  25.6664040  76.7545260  28.3562630  25.5707640  75.8139990  28.2063030
  26.5096020  76.9760330  27.9610700  29.0627460  74.4986590  18.3196290
  29.4557030  74.8158790  17.5064980  29.4244310  73.6198470  18.4340810
  20.7974580  73.1658930  26.5096410  20.4037970  74.0134140  26.7169190
  20.1092980  72.5285300  26.7005050  27.3719630  73.2493900  29.5793150
  26.6817950  73.0566100  30.2139240  28.1151930  73.5328540  30.1117450
  18.0991630  71.0887390  20.5426490  17.8104680  71.6590250  21.2551470
  18.8437390  70.6091840  20.9057720  18.2861860  75.0307510  11.7529210
  18.2036530  75.9738270  11.8944200  17.9344920  74.8882420  10.8741560
  29.6482600  77.0892340  22.4147070  28.9163720  77.5979150  22.7637170
  29.2506940  76.2722320  22.1135850  26.0859990  73.7646540  20.8199560
  26.0896050  73.3236490  19.9704100  26.9811110  74.0863870  20.9271380
  21.9362370  73.6473030  19.7793770  21.5962420  74.1248260  20.5360820
  21.1739690  73.1938150  19.4194870  26.1480140  74.7658620  13.8106320
  26.2692960  74.7245100  14.7592140  25.7628650  75.6282770  13.6553050
  30.1108510  72.5426020  21.8270010  30.1281250  72.9934670  22.6711860
  29.8624090  71.6431660  22.0403450  25.1601640  77.0759760  13.2089620
  24.5918540  76.6278010  12.5825530  25.8690640  77.4352540  12.6754770
  33.5379260  69.9558200  27.6656390  33.8625030  69.2247860  28.1914370
  33.5735770  69.6371840  26.7637380  20.2370820  80.9771780  27.0856350
  19.8525610  80.3365450  27.6839310  20.5483010  81.6807900  27.6551080
  26.3867960  77.8248320  22.5664970  26.7538090  77.3506890  23.3126310
  26.1973020  78.6989890  22.9073310  19.2508450  72.5692010  18.6958440
  18.9655370  72.2047680  19.5337060  19.1887310  71.8372470  18.0821580
  24.1767330  76.8656960  24.8849180  23.8724400  77.7448940  25.1099540
  25.1313790  76.9256750  24.9206620  22.7049120  81.0717950  15.4816030
  21.9311380  80.5315570  15.3214750  23.4343750  80.5524560  15.1433790
  33.4637100  80.0683310  21.2742420  34.1836220  80.5638600  20.8838530
  33.2618920  79.3901200  20.6296290  28.9247040  71.4621270  15.4171810
  28.1111650  70.9634440  15.3417120  28.7308990  72.3019520  15.0008160
  28.8455900  80.1392370  27.1611420  28.7793210  79.2188040  26.9069010
  28.2161040  80.2367810  27.8756060  31.6395430  75.8340920  13.7133970
  32.5275050  76.1458150  13.5385310  31.6100520  74.9613170  13.3214550
  22.7486520  80.7398330  19.1194840  23.2665190  79.9366590  19.0651730
  22.2970540  80.6777470  19.9611670  27.6356020  82.0064610  14.3922140
  27.9771720  82.7506840  13.8965460  26.8068730  82.3195730  14.7546970
  20.2331060  77.7059700  26.0320540  19.8746000  78.3713550  26.6193880
  19.9385620  76.8743250  26.4033160  23.4344180  78.1643940  28.9160090
  23.1344320  78.3101120  28.0187910  24.2055420  77.6049230  28.8233480
  28.7772630  82.9612940  26.9115220  28.7917170  82.0293900  26.6934130
  28.0697730  83.0472700  27.5504990  33.9109700  77.1452760  13.1813830
  33.8273420  77.5766980  12.3310270  34.6303890  77.6051110  13.6140650
  34.9883840  79.6020280  26.2583800  34.2632030  80.1949060  26.0613190
  35.5159300  79.5943820  25.4597170  34.9396950  83.9995020  15.9095960
  34.2973110  83.3450640  16.1839680  34.5527610  84.4050110  15.1336630
  30.5183430  81.3280450  19.7567650  30.8707250  80.7308580  19.0969020
  29.6345760  81.0024680  19.9275900  26.6046710  82.0878140  17.1638060
  27.2917840  82.6347350  17.5445650  25.8179130  82.6318870  17.1987670
  18.7439110  77.7050960  12.6555140  19.6133960  77.9875760  12.9391060
  18.2529430  78.5186830  12.5403950  25.9073920  79.0924170  16.7763420
  26.3636700  79.9029420  17.0023610  25.5562130  78.7747310  17.6081910
  28.2106530  84.6030510  24.0055720  28.8548750  84.8089890  24.6829140
  28.5735970  83.8418910  23.5526570  21.8085700  69.4361820  17.2485940
  21.6800330  69.4279720  18.1970860  20.9847720  69.7744910  16.8976950
  29.4838610  82.6062860  22.7233170  30.1260840  81.9056020  22.8365340
  30.0087960  83.3861300  22.5430060  33.3294330  82.8911480  12.4472310
  33.1031910  82.1741920  13.0396950  32.9390530  82.6423920  11.6094060
  31.2576230  83.4057760  25.9269230  31.5932470  83.9924450  26.6047150
  30.3376570  83.2750470  26.1567020  19.1110360  86.9178340  13.2216770
  19.4708000  87.5167680  12.5674040  18.9702700  87.4638230  13.9951800
  18.8079630  71.1952940  26.7092640  18.0938150  71.3949860  27.3145250
  19.2274670  70.4192510  27.0807440  32.9110580  80.8083420  14.1086470
  32.6232280  81.2696110  14.8964350  33.7062750  80.3481190  14.3770690
  19.0952220  85.1833200  27.6959170  19.2043340  84.2427940  27.5554560
  18.4432780  85.4487950  27.0472900  27.0864810  83.4549090  29.0957290
  26.7661680  82.7358330  29.6402980  26.4123170  84.1304160  29.1693350
  25.1278980  84.3009540  14.0390440  25.1189080  85.0339230  13.4234950
  24.2077340  84.0541120  14.1317400  20.7285620  79.5224430  14.7837200
  20.1213570  80.2623330  14.7932500  21.2034970  79.6123790  13.9575400
  30.3018410  73.6875250  24.4594090  30.6699230  72.8670460  24.7873660
  29.4416610  73.7477140  24.8749740  33.6680440  72.6432190  15.2681650
  33.0393600  72.7477860  14.5539880  33.1732360  72.8628970  16.0575530
  28.1138580  84.3637780  12.7015630  28.2150560  84.1601770  11.7717610
  27.2140320  84.1096060  12.9063410  25.6364470  74.9218140  16.6839530
  24.9280620  75.3904480  17.1253140  25.9208950  74.2640150  17.3184720
  27.2620400  76.3414840  24.6832060  27.7605650  76.8160660  25.3483910
  27.4043350  75.4178360  24.8902090  29.6679900  71.6468800  18.1235320
  29.5447680  71.6654930  17.1744830  30.6164460  71.6947740  18.2433720
  26.7556690  86.8824100  17.3963300  27.0098190  86.8445490  16.4742670
  25.8069170  86.7557430  17.3891550  23.8399490  73.2303220  14.0590240
  24.6890020  73.6673370  13.9930430  23.4730760  73.5423480  14.8862300
  34.4687260  72.5582800  25.5260450  33.9660860  73.2988200  25.8654260
  35.2843920  72.9466800  25.2097240  32.7609270  77.8015980  18.9721810
  31.8199410  77.8166210  19.1469500  33.0753340  77.0151940  19.4182110
  22.7390910  79.4835580  12.5325770  23.5054180  79.3716940  13.0951200
  22.8165600  78.7873550  11.8802540  21.4337670  76.9160650  13.2158660
  21.5141260  75.9688160  13.3276060  22.3257420  77.2467530  13.3219320
  34.7634850  84.9724830  20.6476070  34.8882270  85.7956000  21.1199880
  35.6300410  84.7615560  20.3000220  22.2352380  87.0656040  20.3193200
  22.9714860  86.5171500  20.5901770  22.6193300  87.9312050  20.1799190
  19.1197860  83.1329610  16.1934710  18.1937640  83.3750750  16.1840120
  19.5854290  83.9603870  16.0719460  21.2410660  86.2502110  29.5078780
  22.0423390  86.5714160  29.9214180  20.7262480  85.8897690  30.2298690
  25.3454690  86.2386350  12.1418770  26.1383300  86.5275180  11.6900560
  24.8259040  85.8078520  11.4631250  30.0775290  82.3581980  29.4554190
  29.4713450  82.3813580  28.7149940  29.7729400  81.6265020  29.9921440
  31.5075660  86.0862270  28.0663600  32.4597410  86.0020290  28.0163840
  31.3603880  86.7503980  28.7397390  34.3984860  85.4656480  13.5655510
  34.1126370  85.0521620  12.7509690  34.2004410  86.3944190  13.4456030
  18.9608470  78.7375570  28.4514830  19.4647490  78.1582850  29.0231060
  18.2215890  79.0215800  28.9891200  25.8632090  81.4589760  12.0061120
  25.7582730  80.8442110  12.7322500  25.6956310  80.9355650  11.2224130
  26.0146410  80.1446560  27.9850350  25.2492080  80.7131560  27.9005020
  26.1962370  79.8522770  27.0918580  29.1034820  80.5209790  12.6103110
  28.5544920  80.9679090  13.2545850  29.7254080  80.0159040  13.1340780
  33.1569760  81.8751890  28.5425370  33.8979230  82.2127650  28.0392830
  32.3942440  82.0443950  27.9895140  20.9931550  76.8805160  29.3464900
  21.0336890  76.5819030  30.2550130  21.8477050  77.2812770  29.1872420
  24.7709940  79.4800710  14.5068410  25.1926360  79.3140580  15.3499800
  24.8960780  78.6700940  14.0123550  22.9337360  75.4597260  27.3139390
  22.4033820  74.9688210  26.6862730  23.6025430  75.8881460  26.7797320
  27.2837580  78.5038320  11.7545510  27.8043240  77.7887340  11.3886660
  27.9305980  79.1424190  12.0546020  31.8315420  79.9266720  27.0780580
  32.2456440  80.0811800  27.9271000  30.8966420  80.0521940  27.2406360
  32.3037590  77.2662880  29.0819730  32.8858360  76.5115200  28.9940210
  32.4799360  77.7970320  28.3051210  23.4209660  72.4259630  27.3936680
  23.3266530  71.8080380  26.6687550  22.8407050  73.1525920  27.1666590
  26.1871100  70.9832870  24.4264070  25.7388400  71.0057130  23.5809620
  25.5536300  70.5851890  25.0234370  26.5930650  79.8787200  25.0476510
  27.0118760  80.7219930  24.8752750  25.6739280  80.0159240  24.8183290
  28.9294550  77.6103380  26.4314350  29.0490760  77.0144520  27.1709190
  29.7888550  77.6473070  26.0115650  31.2682450  78.1640570  25.0076860
  30.7417670  78.6883190  24.4042000  31.6113790  78.7967960  25.6386590
  23.6668840  75.5533940  11.4526570  23.4657900  74.6901300  11.8139910
  23.4960890  75.4667300  10.5148170  24.4438070  86.1840210  26.1634240
  23.9059160  86.9086270  25.8442940  24.6972030  85.7070550  25.3731580
  25.6963320  74.1524730  27.6890170  26.2863010  73.8440580  28.3767990
  24.8783560  73.6804480  27.8450070  30.5156750  73.7690540  27.9223190
  29.8272270  73.1072080  27.8573180  31.2362770  73.3228810  28.3671650
  31.1457150  70.3642170  13.9813450  31.4259440  69.5210070  14.3372870
  30.3722880  70.5965280  14.4952200  22.4651640  72.6534560  11.4404450
  22.7677540  72.6601990  10.5323600  23.2046230  72.3032420  11.9372110
  27.3000280  87.4191420  26.4220890  27.2258980  88.3226560  26.7293260
  26.3979120  87.1003320  26.3942960  25.6836570  71.5969180  12.4260650
  25.3358570  70.9193170  11.8463100  25.8849340  71.1358690  13.2404040
  27.8485610  86.5849930  14.0447250  28.7436400  86.9234900  14.0666010
  27.8803240  85.8629340  13.4171530  21.4881770  81.9576980  12.2734250
  21.9256640  82.5006650  12.9291830  21.9729500  81.1323930  12.2830590
  18.7027570  84.7466010  19.7254510  19.0330580  83.8787070  19.4933150
  19.1318570  84.9524530  20.5559470  23.2989490  83.0775020  17.3856480
  22.9985030  82.9539990  18.2860390  23.1926980  82.2183610  16.9772210
  19.1917780  85.6136600  22.4636140  18.7548770  85.7937400  23.2960290
  19.7595460  86.3711220  22.3217860  34.8279960  85.1153600  26.7513450
  34.2281950  85.1746160  26.0077370  34.9573860  84.1758580  26.8810300
  36.0681410  82.8571420  12.0883160  35.2374370  82.9248070  12.5590390
  36.2453240  83.7475540  11.7850020  35.5237870  79.6018900  14.5917360
  36.2856780  80.1715550  14.6977050  35.5392240  79.0346100  15.3625670
  19.0242210  78.1256830  18.8225020  18.3691050  77.8568470  18.1784720
  19.8620160  78.0161310  18.3727000  36.5297840  80.4569000  19.4359290
  36.9006670  79.6736320  19.0295260  37.1699770  81.1458100  19.2576590
  33.5131600  81.8405580  24.8489610  32.6991440  82.2702740  25.1115400
  33.9205800  82.4523990  24.2358660  35.5757040  79.8953270  11.7489880
  35.8505880  80.8032150  11.6209100  35.3867780  79.8315800  12.6851870
  31.9732650  72.9198120  13.0443510  32.3917530  72.7329100  12.2040170
  31.6668710  72.0677170  13.3546440  35.4722380  77.8322260  16.7419310
  35.0965980  77.0650190  16.3100600  34.7425500  78.2144960  17.2294240
  20.0618140  78.5109400  23.3628360  20.4291180  78.4236800  24.2424380
  19.4928960  77.7475950  23.2635220  34.8622000  76.9793780  26.3758830
  34.6308090  76.7506530  25.4756780  35.1226550  77.8993330  26.3303720
  19.6134140  75.4218490  27.2686780  18.7190190  75.3885250  27.6080490
  20.1531690  75.6205280  28.0338030  33.3010070  72.2050210  29.1538530
  34.1780250  72.2133610  29.5372530  33.3130910  71.4681050  28.5430880
  18.2380290  75.3355760  14.7650350  17.3344370  75.5985960  14.5902010
  18.7220910  75.6066930  13.9850310  34.7473340  76.0579750  20.0426550
  35.2710820  75.5642400  19.4116720  35.3332760  76.1930110  20.7874120
  34.9263060  76.1419620  23.5646100  33.9765770  76.1083160  23.6791090
  35.1076070  77.0519730  23.3295870  20.7807500  74.3921300  12.6744730
  21.4899200  73.9704520  12.1892010  20.0647440  74.4596530  12.0428080
  20.4281660  70.4460630  11.7147380  21.1509790  70.9869570  12.0328600
  20.7006180  70.1724050  10.8388920  34.2373310  75.3153100  15.9818960
  34.7332430  75.0823970  16.7667840  34.0389380  74.4764940  15.5656600
  20.1173850  69.6966820  21.6170000  20.7650040  69.1464200  21.1765160
  20.5375690  69.9509970  22.4385810  35.6660470  73.9514050  18.5156640
  35.5559750  73.7970090  19.4538910  36.4268060  73.4234990  18.2732050
  36.5550740  71.7821970  11.7562780  37.4800050  71.6503150  11.5481070
  36.5326530  71.8614790  12.7099230  36.6289230  72.5532630  14.3819490
  35.8340730  72.4877750  14.9112400  36.8332510  73.4883270  14.3704840
  33.5707650  86.5924180  18.3757880  34.1666720  86.2708750  17.6992300
  33.8285800  86.1196000  19.1671150  19.8705850  69.8522490  24.3595320
  19.5220670  70.3086310  25.1253500  19.5393550  68.9579620  24.4417750
  21.4770220  83.0242090  28.5248510  21.4339850  82.6535000  29.4062970
  21.6081230  83.9619660  28.6650330  25.1776250  84.5801680  24.1258230
  24.9367610  84.8476240  23.2388750  26.1178890  84.7507410  24.1809090
  27.3830670  71.0434370  27.8814740  27.3219560  71.6356200  28.6310150
  28.3231050  70.9360330  27.7365000  30.0205230  70.7004430  27.5207030
  30.6345640  71.0183720  26.8588110  30.5654790  70.2153020  28.1402890
  36.4380410  86.5996060  24.9268870  35.9438690  86.9964930  24.2096000
  35.8293700  85.9745270  25.3206150  20.5426490  69.3798690  27.6346090
  21.0909480  69.1986740  26.8712200  20.6081800  68.5892800  28.1702400
  21.3158250  85.9704340  25.6446290  20.7218570  85.8389040  26.3836330
  21.3082090  85.1342480  25.1788390  30.7613270  69.2636570  23.8476320
  29.8873110  69.5971680  23.6449250  30.6524020  68.7909750  24.6728190
  31.6685250  71.4707440  25.2318040  31.3398610  70.6559200  24.8519770
  32.6167550  71.4277250  25.1083730  34.1219860  87.2419480  22.2055610
  33.6622830  87.9935290  21.8313630  33.4932320  86.5225950  22.1470410
  20.9470480  83.3362720  24.5954330  20.2204540  82.7168010  24.5280280
  21.0079630  83.7303330  23.7252410  24.5515580  85.5507720  21.3803740
  25.0680600  84.9395080  20.8552000  25.2012960  86.0536500  21.8714750
  27.2911080  86.4416210  22.2072720  27.5788890  86.1870510  21.3305730
  27.8034300  85.8893570  22.7978290  28.5088090  70.1806410  22.7869230
  27.7259880  70.6551910  23.0665990  28.2151020  69.2761240  22.6782410
  33.0609160  70.8829510  20.8318320  33.5017250  70.8274610  19.9839920
  32.7916750  71.7987520  20.9028500  34.9247730  70.5144750  18.8427140
  34.8636130  69.5705970  18.6958160  35.7039760  70.6224840  19.3880600
  19.2300480  86.6537110  17.8051090  19.0622520  86.0207790  18.5032980
  18.3634990  86.8596510  17.4545280  19.8528500  70.4853890  15.3082950
  20.6107860  70.5982770  14.7346980  19.3905670  71.3223090  15.2626380
  26.3942310  72.5993160  18.2985260  25.5816820  72.2250050  17.9581140
  26.8983950  71.8438240  18.6006450  30.8967290  69.2635610  19.5368330
  31.4996660  69.8355820  20.0116850  30.1560280  69.8275050  19.3142230
  34.0401890  69.6657170  14.8108610  34.2352520  70.5640620  15.0776040
  33.2531760  69.4344250  15.3041560  20.8363180  85.3470340  15.2501230
  20.3110800  85.7278370  14.5463190  20.7607760  85.9721110  15.9710940
  22.2253650  71.0117940  13.8484920  22.7546410  70.2247740  13.7192870
  22.8581970  71.6909130  14.0820450  24.4191490  70.7493080  16.9030310
  23.7894230  70.0480390  17.0700440  23.8796630  71.5097210  16.6863470
  27.3583440  87.3632310  29.5740920  28.2850750  87.1276580  29.6176880
  27.3433870  88.1904310  29.0926950  35.5928500  86.9057880  16.5715170
  35.7680690  86.2195620  15.9276090  34.8950070  87.4304930  16.1791840
  24.5447050  70.0277060  29.3382800  24.2631320  70.5310660  28.5743620
  24.9266750  69.2298810  28.9724930  23.4356150  87.2952720  14.1250480
  24.1674970  87.0112000  13.5774370  23.6949820  87.0566000  15.0149860
  22.5970940  83.4117450  14.1296810  21.9679820  83.8802550  14.6782640
  22.7118770  82.5666670  14.5643000  31.1462510  69.4430640  29.9163270
  31.0327960  69.7625250  30.8114790  31.9632250  69.8443150  29.6200550
  33.9261000  86.5902170  29.3981960  34.7186320  86.0951400  29.1907920
  34.2194150  87.2692310  30.0057570  28.1838700  79.2402130   2.1607280
  27.4080800  78.7602570   2.4505850  28.8351630  78.5607780   1.9863440
  22.2004530  79.5521940   3.0383040  21.3689410  79.2970650   3.4379550
  22.8085510  79.6232710   3.7740960  22.1805790  83.5862030   3.2341060
  22.4833830  82.6959770   3.0551280  22.9249380  84.1432250   3.0063310
  18.5729490  77.1129480   2.7065130  19.1445600  76.3451680   2.7068770
  18.5731030  77.4118240   1.7971740  27.6247690  81.9159320   2.1677440
  27.5555970  80.9749260   2.0066570  28.3867550  82.0060730   2.7400010
  19.8154360  72.5213840   4.4934060  19.6357200  71.6239590   4.7736820
  19.4134440  73.0685710   5.1681010  28.6552860  74.7229700   2.3946370
  29.0317680  73.8501580   2.2820040  28.5572370  75.0588400   1.5036810
  20.4341030  75.0174340   3.1016400  21.1151140  75.2812710   3.7203800
  20.1189080  74.1775210   3.4354410  24.6265600  76.0641700   2.1888990
  25.1343820  76.5622670   2.8294010  25.1578840  75.2876900   2.0128350
  36.7276530  74.2346890   5.8918340  36.0228700  74.6228600   5.3733450
  36.9934450  74.9297180   6.4939270  22.9101700  70.7040260   6.4552410
  22.9120140  71.2212650   5.6498310  22.0806010  70.2270440   6.4322340
  24.1604550  80.3435440   4.6325910  23.8273930  80.9704360   5.2746980
  24.3371230  80.8697320   3.8527580  32.6738460  74.1580520   2.1002250
  31.9694030  74.4465410   2.6805360  33.0350620  74.9680630   1.7401810
  22.5917030  72.4150220   4.4622860  22.9333840  73.2592270   4.1676730
  21.6532840  72.5633960   4.5788200  23.3723650  82.3116240   6.4475090
  23.9897650  82.9867320   6.1659540  22.5116770  82.7204220   6.3562590
  34.2901240  83.7755650   4.3629730  33.6064760  84.4454760   4.3546400
  34.8295530  83.9736300   3.5974590  35.7425380  73.6035310   2.4911460
  34.7950290  73.6374290   2.6226890  36.0675370  74.4174260   2.8760820
  31.8259980  85.6199780   3.0774910  31.8387140  85.2162070   2.2097170
  31.2735200  86.3947070   2.9736340  31.2245420  80.5229620   4.4057520
  31.6414210  80.3089730   3.5710980  31.9485240  80.7802410   4.9766140
  35.1707520  78.9216840   4.4973760  34.3426150  78.9909930   4.0223890
  35.7658000  79.5071150   4.0289590  32.1349530  75.7086160   5.4428630
  31.7220710  76.5339870   5.6968620  31.4025480  75.1231200   5.2504990
  24.7364020  82.1813620   2.4686510  24.4392310  81.5759090   1.7894290
  25.6863840  82.2190930   2.3575870  22.9810940  75.2689270   4.0846340
  23.5325530  75.3784610   3.3099590  23.4954450  75.6426870   4.8001570
  32.8249630  85.7545490   6.1309610  32.3480190  86.5617680   5.9382220
  32.1411420  85.1023820   6.2835820  23.8282450  81.9195310   9.1194310
  22.9310980  82.1435280   9.3667710  23.8535320  82.0430250   8.1705710
  22.6553670  78.7908630   7.6951680  22.5161440  79.6631430   8.0639080
  21.7735030  78.4481440   7.5499620  24.4534020  84.7330330   9.9036830
  24.4249450  85.1373280   9.0365260  24.2898990  83.8040690   9.7408430
  36.4048840  85.5157430  11.2001000  36.8808560  85.9940320  11.8790080
  37.0256000  85.4474920  10.4746500  18.6072320  80.5606180   3.6122590
  18.6852740  80.6954950   2.6678310  19.2214000  79.8522070   3.8050710
  35.8082090  82.7070280   8.3601010  35.9345150  82.4682160   7.4418190
  35.8503470  81.8754820   8.8323090  29.6698830  86.4098280   6.9295820
  30.1843500  86.3206290   7.7318250  28.8267910  86.7557980   7.2223730
  35.6606100  74.7602740   9.3250750  35.0450370  75.2682410   8.7966210
  35.3402520  73.8601070   9.2676690  18.6631840  81.6020350   6.1517050
  18.8262880  81.1325710   5.3336420  19.1284290  81.0943910   6.8165890
  27.7220420  73.5994630   6.7912940  27.2599790  73.8077650   7.6032880
  27.3198530  72.7853980   6.4883610  32.7224930  74.8203580   7.9209600
  31.8718520  74.5209330   8.2418670  32.5626720  75.0645590   7.0093420
  29.8174640  76.3205330  10.0208390  30.1428050  75.4869080   9.6810620
  30.6054970  76.8433850  10.1686720  25.4726510  71.2773440   3.0467220
  25.7698840  72.1836270   2.9659240  26.0212070  70.7892220   2.4326790
  25.6664040  76.7545260   9.5819140  25.5707640  75.8139990   9.4319540
  26.5096020  76.9760330   9.1867210  20.7974580  73.1658930   7.7352920
  20.4037970  74.0134140   7.9425700  20.1092980  72.5285300   7.9261560
  27.3719630  73.2493900  10.8049660  26.6817950  73.0566100  11.4395750
  28.1151930  73.5328540  11.3373960  18.0991630  71.0887390   1.7683000
  17.8104680  71.6590250   2.4807980  18.8437390  70.6091840   2.1314230
  29.6482600  77.0892340   3.6403580  28.9163720  77.5979150   3.9893680
  29.2506940  76.2722320   3.3392360  30.1108510  72.5426020   3.0526520
  30.1281250  72.9934670   3.8968370  29.8624090  71.6431660   3.2659960
  33.5379260  69.9558200   8.8912900  33.8625030  69.2247860   9.4170880
  33.5735770  69.6371840   7.9893890  20.2370820  80.9771780   8.3112860
  19.8525610  80.3365450   8.9095820  20.5483010  81.6807900   8.8807590
  26.3867960  77.8248320   3.7921480  26.7538090  77.3506890   4.5382820
  26.1973020  78.6989890   4.1329820  24.1767330  76.8656960   6.1105690
  23.8724400  77.7448940   6.3356050  25.1313790  76.9256750   6.1463130
  33.4637100  80.0683310   2.4998930  34.1836220  80.5638600   2.1095040
  33.2618920  79.3901200   1.8552800  28.8455900  80.1392370   8.3867930
  28.7793210  79.2188040   8.1325520  28.2161040  80.2367810   9.1012570
  20.2331060  77.7059700   7.2577050  19.8746000  78.3713550   7.8450390
  19.9385620  76.8743250   7.6289670  23.4344180  78.1643940  10.1416600
  23.1344320  78.3101120   9.2444420  24.2055420  77.6049230  10.0489990
  28.7772630  82.9612940   8.1371730  28.7917170  82.0293900   7.9190640
  28.0697730  83.0472700   8.7761500  34.9883840  79.6020280   7.4840310
  34.2632030  80.1949060   7.2869700  35.5159300  79.5943820   6.6853680
  28.2106530  84.6030510   5.2312230  28.8548750  84.8089890   5.9085650
  28.5735970  83.8418910   4.7783080  29.4838610  82.6062860   3.9489680
  30.1260840  81.9056020   4.0621850  30.0087960  83.3861300   3.7686570
  31.2576230  83.4057760   7.1525740  31.5932470  83.9924450   7.8303660
  30.3376570  83.2750470   7.3823530  18.8079630  71.1952940   7.9349150
  18.0938150  71.3949860   8.5401760  19.2274670  70.4192510   8.3063950
  19.0952220  85.1833200   8.9215680  19.2043340  84.2427940   8.7811070
  18.4432780  85.4487950   8.2729410  27.0864810  83.4549090  10.3213800
  26.7661680  82.7358330  10.8659490  26.4123170  84.1304160  10.3949860
  30.3018410  73.6875250   5.6850600  30.6699230  72.8670460   6.0130170
  29.4416610  73.7477140   6.1006250  27.2620400  76.3414840   5.9088570
  27.7605650  76.8160660   6.5740420  27.4043350  75.4178360   6.1158600
  34.4687260  72.5582800   6.7516960  33.9660860  73.2988200   7.0910770
  35.2843920  72.9466800   6.4353750  34.7634850  84.9724830   1.8732580
  34.8882270  85.7956000   2.3456390  35.6300410  84.7615560   1.5256730
  21.2410660  86.2502110  10.7335290  22.0423390  86.5714160  11.1470690
  20.7262480  85.8897690  11.4555200  30.0775290  82.3581980  10.6810700
  29.4713450  82.3813580   9.9406450  29.7729400  81.6265020  11.2177950
  31.5075660  86.0862270   9.2920110  32.4597410  86.0020290   9.2420350
  31.3603880  86.7503980   9.9653900  18.9608470  78.7375570   9.6771340
  19.4647490  78.1582850  10.2487570  18.2215890  79.0215800  10.2147710
  26.0146410  80.1446560   9.2106860  25.2492080  80.7131560   9.1261530
  26.1962370  79.8522770   8.3175090  33.1569760  81.8751890   9.7681880
  33.8979230  82.2127650   9.2649340  32.3942440  82.0443950   9.2151650
  20.9931550  76.8805160  10.5721410  21.0336890  76.5819030  11.4806640
  21.8477050  77.2812770  10.4128930  22.9337360  75.4597260   8.5395900
  22.4033820  74.9688210   7.9119240  23.6025430  75.8881460   8.0053830
  31.8315420  79.9266720   8.3037090  32.2456440  80.0811800   9.1527510
  30.8966420  80.0521940   8.4662870  32.3037590  77.2662880  10.3076240
  32.8858360  76.5115200  10.2196720  32.4799360  77.7970320   9.5307720
  23.4209660  72.4259630   8.6193190  23.3266530  71.8080380   7.8944060
  22.8407050  73.1525920   8.3923100  26.1871100  70.9832870   5.6520580
  25.7388400  71.0057130   4.8066130  25.5536300  70.5851890   6.2490880
  26.5930650  79.8787200   6.2733020  27.0118760  80.7219930   6.1009260
  25.6739280  80.0159240   6.0439800  28.9294550  77.6103380   7.6570860
  29.0490760  77.0144520   8.3965700  29.7888550  77.6473070   7.2372160
  31.2682450  78.1640570   6.2333370  30.7417670  78.6883190   5.6298510
  31.6113790  78.7967960   6.8643100  24.4438070  86.1840210   7.3890750
  23.9059160  86.9086270   7.0699450  24.6972030  85.7070550   6.5988090
  25.6963320  74.1524730   8.9146680  26.2863010  73.8440580   9.6024500
  24.8783560  73.6804480   9.0706580  30.5156750  73.7690540   9.1479700
  29.8272270  73.1072080   9.0829690  31.2362770  73.3228810   9.5928160
  27.3000280  87.4191420   7.6477400  27.2258980  88.3226560   7.9549770
  26.3979120  87.1003320   7.6199470  19.1917780  85.6136600   3.6892650
  18.7548770  85.7937400   4.5216800  19.7595460  86.3711220   3.5474370
  34.8279960  85.1153600   7.9769960  34.2281950  85.1746160   7.2333880
  34.9573860  84.1758580   8.1066810  33.5131600  81.8405580   6.0746120
  32.6991440  82.2702740   6.3371910  33.9205800  82.4523990   5.4615170
  20.0618140  78.5109400   4.5884870  20.4291180  78.4236800   5.4680890
  19.4928960  77.7475950   4.4891730  34.8622000  76.9793780   7.6015340
  34.6308090  76.7506530   6.7013290  35.1226550  77.8993330   7.5560230
  19.6134140  75.4218490   8.4943290  18.7190190  75.3885250   8.8337000
  20.1531690  75.6205280   9.2594540  33.3010070  72.2050210  10.3795040
  34.1780250  72.2133610  10.7629040  33.3130910  71.4681050   9.7687390
  34.9263060  76.1419620   4.7902610  33.9765770  76.1083160   4.9047600
  35.1076070  77.0519730   4.5552380  20.1173850  69.6966820   2.8426510
  20.7650040  69.1464200   2.4021670  20.5375690  69.9509970   3.6642320
  34.0126190  69.8908180   6.1996150  34.6498410  70.5042320   6.5655340
  34.1601080  69.9268840   5.2545380  19.8705850  69.8522490   5.5851830
  19.5220670  70.3086310   6.3510010  19.5393550  68.9579620   5.6674260
  21.4770220  83.0242090   9.7505020  21.4339850  82.6535000  10.6319480
  21.6081230  83.9619660   9.8906840  25.1776250  84.5801680   5.3514740
  24.9367610  84.8476240   4.4645260  26.1178890  84.7507410   5.4065600
  27.3830670  71.0434370   9.1071250  27.3219560  71.6356200   9.8566660
  28.3231050  70.9360330   8.9621510  30.0205230  70.7004430   8.7463540
  30.6345640  71.0183720   8.0844620  30.5654790  70.2153020   9.3659400
  36.4380410  86.5996060   6.1525380  35.9438690  86.9964930   5.4352510
  35.8293700  85.9745270   6.5462660  20.5426490  69.3798690   8.8602600
  21.0909480  69.1986740   8.0968710  20.6081800  68.5892800   9.3958910
  21.3158250  85.9704340   6.8702800  20.7218570  85.8389040   7.6092840
  21.3082090  85.1342480   6.4044900  30.7613270  69.2636570   5.0732830
  29.8873110  69.5971680   4.8705760  30.6524020  68.7909750   5.8984700
  31.6685250  71.4707440   6.4574550  31.3398610  70.6559200   6.0776280
  32.6167550  71.4277250   6.3340240  34.1219860  87.2419480   3.4312120
  33.6622830  87.9935290   3.0570140  33.4932320  86.5225950   3.3726920
  20.9470480  83.3362720   5.8210840  20.2204540  82.7168010   5.7536790
  21.0079630  83.7303330   4.9508920  24.5515580  85.5507720   2.6060250
  25.0680600  84.9395080   2.0808510  25.2012960  86.0536500   3.0971260
  27.2911080  86.4416210   3.4329230  27.5788890  86.1870510   2.5562240
  27.8034300  85.8893570   4.0234800  28.5088090  70.1806410   4.0125740
  27.7259880  70.6551910   4.2922500  28.2151020  69.2761240   3.9038920
  27.3583440  87.3632310  10.7997430  28.2850750  87.1276580  10.8433390
  27.3433870  88.1904310  10.3183460  24.5447050  70.0277060  10.5639310
  24.2631320  70.5310660   9.8000130  24.9266750  69.2298810  10.1981440
  31.1462510  69.4430640  11.1419780  31.0327960  69.7625250  12.0371300
  31.9632250  69.8443150  10.8457060  33.9261000  86.5902170  10.6238470
  34.7186320  86.0951400  10.4164430  34.2194150  87.2692310  11.2314080
  30.0520660  58.6879620  56.6028480  29.9714710  57.7734230  56.3320190
  29.6385080  59.1846690  55.8968190  32.2046130  64.8718830  57.2636880
  31.7427660  64.1006070  57.5924050  33.0171680  64.8984900  57.7689330
  20.6096480  55.7380340  53.1455900  19.7213180  56.0796310  53.0435780
  20.8937670  55.5380660  52.2536730  28.4309440  67.1576840  56.8840870
  27.8120880  67.6134340  56.3135310  29.2861220  67.3128300  56.4830570
  22.7857870  54.3211840  54.1794280  22.8924620  55.2215570  54.4863040
  21.8750230  54.2729810  53.8888930  32.4376980  53.4436650  55.6505180
  33.2586600  52.9533220  55.6930660  32.4711060  54.0334310  56.4037020
  29.2972790  62.0416080  54.2772780  28.6790060  62.5065530  53.7135500
  29.8096040  62.7343560  54.6942290  18.6655990  62.7272610  51.6512410
  18.2883970  63.2159710  50.9197310  18.9229060  63.3997890  52.2818940
  26.2744920  51.1289000  57.1097920  26.5819900  50.5735890  56.3933420
  25.3445620  51.2633460  56.9270910  33.1205400  63.5672510  54.4895550
  33.0101730  62.6246840  54.6144970  33.1173650  63.9288150  55.3758310
  28.6625680  59.1937830  53.8458040  27.7354960  59.1275210  54.0746510
  28.8150500  60.1317960  53.7313280  28.6494760  55.4654830  50.8425200
  27.7098430  55.6268790  50.9277660  28.9678020  56.1840510  50.2961190
  32.6922970  60.7558130  54.3493290  32.0735390  60.4177680  53.7019590
  32.6747420  60.1117890  55.0572480  24.2682320  59.7202570  56.6277770
  23.8639320  59.0079820  56.1323670  24.3545440  59.3755810  57.5165810
  30.8687670  59.9944940  51.3566040  31.3080950  59.1567370  51.2103860
  31.5816090  60.6274340  51.4430180  28.9783050  64.9341010  55.3247280
  29.4178960  65.6765340  54.9102670  28.9169940  65.1767580  56.2486240
  34.4504810  51.2487750  49.6707080  34.1377470  51.3414580  50.5706150
  35.2117280  51.8268780  49.6204510  20.9686950  58.6147550  54.1284420
  20.8484550  59.3409640  53.5165690  20.6587840  57.8450460  53.6512330
  19.8519950  63.4862880  56.3459240  19.4448030  63.6277470  55.4912840
  20.7432960  63.2023040  56.1430450  31.6453230  67.9210130  52.6810290
  31.4854370  67.6313070  53.5792120  31.4799940  67.1450260  52.1455520
  24.1241610  67.7008660  54.4581910  23.9484090  66.7844200  54.2449710
  23.2697350  68.0595950  54.6979710  31.3479360  65.4297690  51.2408290
  30.6544520  65.4274980  50.5810570  32.0902220  65.0057010  50.8102460
  30.9129290  67.0560400  55.3156780  31.3686240  66.2749780  55.6295400
  31.2521810  67.7667220  55.8597960  23.4350610  51.9582620  57.5108090
  22.9918760  52.7392160  57.1792610  23.9935600  52.2812510  58.2179030
  26.5509430  51.5793320  52.3913920  25.9263610  51.5753190  53.1167230
  26.4639550  50.7124280  51.9949890  23.2264830  57.0816190  55.2389340
  23.0005750  56.8653360  56.1435960  22.4457360  57.5144650  54.8935310
  30.4562590  57.0879560  53.8379990  29.8571480  57.8115360  53.6543610
  31.0042200  57.0256340  53.0556440  29.0627460  55.7243100  55.8683270
  29.4557030  56.0415300  55.0551960  29.4244310  54.8454980  55.9827790
  18.2861860  56.2564020  49.3016190  18.2036530  57.1994780  49.4431180
  17.9344920  56.1138930  48.4228540  26.0859990  54.9903050  58.3686540
  26.0896050  54.5493000  57.5191080  26.9811110  55.3120380  58.4758360
  21.9362370  54.8729540  57.3280750  21.5962420  55.3504770  58.0847800
  21.1739690  54.4194660  56.9681850  26.1480140  55.9915130  51.3593300
  26.2692960  55.9501610  52.3079120  25.7628650  56.8539280  51.2040030
  25.1601640  58.3016270  50.7576600  24.5918540  57.8534520  50.1312510
  25.8690640  58.6609050  50.2241750  19.2508450  53.7948520  56.2445420
  18.9655370  53.4304190  57.0824040  19.1887310  53.0628980  55.6308560
  22.7049120  62.2974460  53.0303010  21.9311380  61.7572080  52.8701730
  23.4343750  61.7781070  52.6920770  28.9247040  52.6877780  52.9658790
  28.1111650  52.1890950  52.8904100  28.7308990  53.5276030  52.5495140
  31.6395430  57.0597430  51.2620950  32.5275050  57.3714660  51.0872290
  31.6100520  56.1869680  50.8701530  22.7486520  61.9654840  56.6681820
  23.2665190  61.1623100  56.6138710  22.2970540  61.9033980  57.5098650
  27.6356020  63.2321120  51.9409120  27.9771720  63.9763350  51.4452440
  26.8068730  63.5452240  52.3033950  33.9109700  58.3709270  50.7300810
  33.8273420  58.8023490  49.8797250  34.6303890  58.8307620  51.1627630
  34.9396950  65.2251530  53.4582940  34.2973110  64.5707150  53.7326660
  34.5527610  65.6306620  52.6823610  30.5183430  62.5536960  57.3054630
  30.8707250  61.9565090  56.6456000  29.6345760  62.2281190  57.4762880
  26.6046710  63.3134650  54.7125040  27.2917840  63.8603860  55.0932630
  25.8179130  63.8575380  54.7474650  18.7439110  58.9307470  50.2042120
  19.6133960  59.2132270  50.4878040  18.2529430  59.7443340  50.0890930
  25.9073920  60.3180680  54.3250400  26.3636700  61.1285930  54.5510590
  25.5562130  60.0003820  55.1568890  21.8085700  50.6618330  54.7972920
  21.6800330  50.6536230  55.7457840  20.9847720  51.0001420  54.4463930
  33.3294330  64.1167990  49.9959290  33.1031910  63.3998430  50.5883930
  32.9390530  63.8680430  49.1581040  19.1110360  68.1434850  50.7703750
  19.4708000  68.7424190  50.1161020  18.9702700  68.6894740  51.5438780
  32.9110580  62.0339930  51.6573450  32.6232280  62.4952620  52.4451330
  33.7062750  61.5737700  51.9257670  25.1278980  65.5266050  51.5877420
  25.1189080  66.2595740  50.9721930  24.2077340  65.2797630  51.6804380
  20.7285620  60.7480940  52.3324180  20.1213570  61.4879840  52.3419480
  21.2034970  60.8380300  51.5062380  33.6680440  53.8688700  52.8168630
  33.0393600  53.9734370  52.1026860  33.1732360  54.0885480  53.6062510
  28.1138580  65.5894290  50.2502610  28.2150560  65.3858280  49.3204590
  27.2140320  65.3352570  50.4550390  25.6364470  56.1474650  54.2326510
  24.9280620  56.6160990  54.6740120  25.9208950  55.4896660  54.8671700
  29.6679900  52.8725310  55.6722300  29.5447680  52.8911440  54.7231810
  30.6164460  52.9204250  55.7920700  26.7556690  68.1080610  54.9450280
  27.0098190  68.0702000  54.0229650  25.8069170  67.9813940  54.9378530
  23.8399490  54.4559730  51.6077220  24.6890020  54.8929880  51.5417410
  23.4730760  54.7679990  52.4349280  32.7609270  59.0272490  56.5208790
  31.8199410  59.0422720  56.6956480  33.0753340  58.2408450  56.9669090
  22.7390910  60.7092090  50.0812750  23.5054180  60.5973450  50.6438180
  22.8165600  60.0130060  49.4289520  21.4337670  58.1417160  50.7645640
  21.5141260  57.1944670  50.8763040  22.3257420  58.4724040  50.8706300
  22.2352380  68.2912550  57.8680180  22.9714860  67.7428010  58.1388750
  22.6193300  69.1568560  57.7286170  19.1197860  64.3586120  53.7421690
  18.1937640  64.6007260  53.7327100  19.5854290  65.1860380  53.6206440
  25.3454690  67.4642860  49.6905750  26.1383300  67.7531690  49.2387540
  24.8259040  67.0335030  49.0118230  34.3984860  66.6912990  51.1142490
  34.1126370  66.2778130  50.2996670  34.2004410  67.6200700  50.9943010
  25.8632090  62.6846270  49.5548100  25.7582730  62.0698620  50.2809480
  25.6956310  62.1612160  48.7711110  29.1034820  61.7466300  50.1590090
  28.5544920  62.1935600  50.8032830  29.7254080  61.2415550  50.6827760
  24.7709940  60.7057220  52.0555390  25.1926360  60.5397090  52.8986780
  24.8960780  59.8957450  51.5610530  27.2837580  59.7294830  49.3032490
  27.8043240  59.0143850  48.9373640  27.9305980  60.3680700  49.6033000
  23.6668840  56.7790450  49.0013550  23.4657900  55.9157810  49.3626890
  23.4960890  56.6923810  48.0635150  31.1457150  51.5898680  51.5300430
  31.4259440  50.7466580  51.8859850  30.3722880  51.8221790  52.0439180
  22.4651640  53.8791070  48.9891430  22.7677540  53.8858500  48.0810580
  23.2046230  53.5288930  49.4859090  25.6836570  52.8225690  49.9747630
  25.3358570  52.1449680  49.3950080  25.8849340  52.3615200  50.7891020
  27.8485610  67.8106440  51.5934230  28.7436400  68.1491410  51.6152990
  27.8803240  67.0885850  50.9658510  21.4881770  63.1833490  49.8221230
  21.9256640  63.7263160  50.4778810  21.9729500  62.3580440  49.8317570
  18.7027570  65.9722520  57.2741490  19.0330580  65.1043580  57.0420130
  19.1318570  66.1781040  58.1046450  23.2989490  64.3031530  54.9343460
  22.9985030  64.1796500  55.8347370  23.1926980  63.4440120  54.5259190
  36.0681410  64.0827930  49.6370140  35.2374370  64.1504580  50.1077370
  36.2453240  64.9732050  49.3337000  35.5237870  60.8275410  52.1404340
  36.2856780  61.3972060  52.2464030  35.5392240  60.2602610  52.9112650
  19.0242210  59.3513340  56.3712000  18.3691050  59.0824980  55.7271700
  19.8620160  59.2417820  55.9213980  36.5297840  61.6825510  56.9846270
  36.9006670  60.8992830  56.5782240  37.1699770  62.3714610  56.8063570
  35.5757040  61.1209780  49.2976860  35.8505880  62.0288660  49.1696080
  35.3867780  61.0572310  50.2338850  31.9732650  54.1454630  50.5930490
  32.3917530  53.9585610  49.7527150  31.6668710  53.2933680  50.9033420
  35.4722380  59.0578770  54.2906290  35.0965980  58.2906700  53.8587580
  34.7425500  59.4401470  54.7781220  18.2380290  56.5612270  52.3137330
  17.3344370  56.8242470  52.1388990  18.7220910  56.8323440  51.5337290
  34.7473340  57.2836260  57.5913530  35.2710820  56.7898910  56.9603700
  35.3332760  57.4186620  58.3361100  20.7807500  55.6177810  50.2231710
  21.4899200  55.1961030  49.7378990  20.0647440  55.6853040  49.5915060
  20.4281660  51.6717140  49.2634360  21.1509790  52.2126080  49.5815580
  20.7006180  51.3980560  48.3875900  34.2373310  56.5409610  53.5305940
  34.7332430  56.3080480  54.3154820  34.0389380  55.7021450  53.1143580
  35.6660470  55.1770560  56.0643620  35.5559750  55.0226600  57.0025890
  36.4268060  54.6491500  55.8219030  36.5550740  53.0078480  49.3049760
  37.4800050  52.8759660  49.0968050  36.5326530  53.0871300  50.2586210
  36.6289230  53.7789140  51.9306470  35.8340730  53.7134260  52.4599380
  36.8332510  54.7139780  51.9191820  33.5707650  67.8180690  55.9244860
  34.1666720  67.4965260  55.2479280  33.8285800  67.3452510  56.7158130
  33.0609160  52.1086020  58.3805300  33.5017250  52.0531120  57.5326900
  32.7916750  53.0244030  58.4515480  34.9247730  51.7401260  56.3914120
  34.8636130  50.7962480  56.2445140  35.7039760  51.8481350  56.9367580
  19.2300480  67.8793620  55.3538070  19.0622520  67.2464300  56.0519960
  18.3634990  68.0853020  55.0032260  19.8528500  51.7110400  52.8569930
  20.6107860  51.8239280  52.2833960  19.3905670  52.5479600  52.8113360
  26.3942310  53.8249670  55.8472240  25.5816820  53.4506560  55.5068120
  26.8983950  53.0694750  56.1493430  30.8967290  50.4892120  57.0855310
  31.4996660  51.0612330  57.5603830  30.1560280  51.0531560  56.8629210
  34.0401890  50.8913680  52.3595590  34.2352520  51.7897130  52.6263020
  33.2531760  50.6600760  52.8528540  20.8363180  66.5726850  52.7988210
  20.3110800  66.9534880  52.0950170  20.7607760  67.1977620  53.5197920
  22.2253650  52.2374450  51.3971900  22.7546410  51.4504250  51.2679850
  22.8581970  52.9165640  51.6307430  24.4191490  51.9749590  54.4517290
  23.7894230  51.2736900  54.6187420  23.8796630  52.7353720  54.2350450
  35.5928500  68.1314390  54.1202150  35.7680690  67.4452130  53.4763070
  34.8950070  68.6561440  53.7278820  23.4356150  68.5209230  51.6737460
  24.1674970  68.2368510  51.1261350  23.6949820  68.2822510  52.5636840
  22.5970940  64.6373960  51.6783790  21.9679820  65.1059060  52.2269620
  22.7118770  63.7923180  52.1129980  30.0520660  58.6879620  37.8284990
  29.9714710  57.7734230  37.5576700  29.6385080  59.1846690  37.1224700
  28.1838700  60.4658640  39.7094260  27.4080800  59.9859080  39.9992830
  28.8351630  59.7864290  39.5350420  22.2004530  60.7778450  40.5870020
  21.3689410  60.5227160  40.9866530  22.8085510  60.8489220  41.3227940
  32.2046130  64.8718830  38.4893390  31.7427660  64.1006070  38.8180560
  33.0171680  64.8984900  38.9945840  22.1805790  64.8118540  40.7828040
  22.4833830  63.9216280  40.6038260  22.9249380  65.3688760  40.5550290
  20.6096480  55.7380340  34.3712410  19.7213180  56.0796310  34.2692290
  20.8937670  55.5380660  33.4793240  18.5729490  58.3385990  40.2552110
  19.1445600  57.5708190  40.2555750  18.5731030  58.6374750  39.3458720
  28.4309440  67.1576840  38.1097380  27.8120880  67.6134340  37.5391820
  29.2861220  67.3128300  37.7087080  27.6247690  63.1415830  39.7164420
  27.5555970  62.2005770  39.5553550  28.3867550  63.2317240  40.2886990
  19.8154360  53.7470350  42.0421040  19.6357200  52.8496100  42.3223800
  19.4134440  54.2942220  42.7167990  28.6552860  55.9486210  39.9433350
  29.0317680  55.0758090  39.8307020  28.5572370  56.2844910  39.0523790
  22.7857870  54.3211840  35.4050790  22.8924620  55.2215570  35.7119550
  21.8750230  54.2729810  35.1145440  32.4376980  53.4436650  36.8761690
  33.2586600  52.9533220  36.9187170  32.4711060  54.0334310  37.6293530
  20.4341030  56.2430850  40.6503380  21.1151140  56.5069220  41.2690780
  20.1189080  55.4031720  40.9841390  24.6265600  57.2898210  39.7375970
  25.1343820  57.7879180  40.3780990  25.1578840  56.5133410  39.5615330
  36.7276530  55.4603400  43.4405320  36.0228700  55.8485110  42.9220430
  36.9934450  56.1553690  44.0426250  22.9101700  51.9296770  44.0039390
  22.9120140  52.4469160  43.1985290  22.0806010  51.4526950  43.9809320
  29.2972790  62.0416080  35.5029290  28.6790060  62.5065530  34.9392010
  29.8096040  62.7343560  35.9198800  24.1604550  61.5691950  42.1812890
  23.8273930  62.1960870  42.8233960  24.3371230  62.0953830  41.4014560
  32.6738460  55.3837030  39.6489230  31.9694030  55.6721920  40.2292340
  33.0350620  56.1937140  39.2888790  22.5917030  53.6406730  42.0109840
  22.9333840  54.4848780  41.7163710  21.6532840  53.7890470  42.1275180
  23.3723650  63.5372750  43.9962070  23.9897650  64.2123830  43.7146520
  22.5116770  63.9460730  43.9049570  18.6655990  62.7272610  32.8768920
  18.2883970  63.2159710  32.1453820  18.9229060  63.3997890  33.5075450
  34.2901240  65.0012160  41.9116710  33.6064760  65.6711270  41.9033380
  34.8295530  65.1992810  41.1461570  35.7425380  54.8291820  40.0398440
  34.7950290  54.8630800  40.1713870  36.0675370  55.6430770  40.4247800
  26.2744920  51.1289000  38.3354430  26.5819900  50.5735890  37.6189930
  25.3445620  51.2633460  38.1527420  31.8259980  66.8456290  40.6261890
  31.8387140  66.4418580  39.7584150  31.2735200  67.6203580  40.5223320
  33.1205400  63.5672510  35.7152060  33.0101730  62.6246840  35.8401480
  33.1173650  63.9288150  36.6014820  31.2245420  61.7486130  41.9544500
  31.6414210  61.5346240  41.1197960  31.9485240  62.0058920  42.5253120
  35.1707520  60.1473350  42.0460740  34.3426150  60.2166440  41.5710870
  35.7658000  60.7327660  41.5776570  32.6922970  60.7558130  35.5749800
  32.0735390  60.4177680  34.9276100  32.6747420  60.1117890  36.2828990
  32.1349530  56.9342670  42.9915610  31.7220710  57.7596380  43.2455600
  31.4025480  56.3487710  42.7991970  24.2682320  59.7202570  37.8534280
  23.8639320  59.0079820  37.3580180  24.3545440  59.3755810  38.7422320
  24.7364020  63.4070130  40.0173490  24.4392310  62.8015600  39.3381270
  25.6863840  63.4447440  39.9062850  22.9810940  56.4945780  41.6333320
  23.5325530  56.6041120  40.8586570  23.4954450  56.8683380  42.3488550
  32.8249630  66.9802000  43.6796590  32.3480190  67.7874190  43.4869200
  32.1411420  66.3280330  43.8322800  23.8282450  63.1451820  46.6681290
  22.9310980  63.3691790  46.9154690  23.8535320  63.2686760  45.7192690
  22.6553670  60.0165140  45.2438660  22.5161440  60.8887940  45.6126060
  21.7735030  59.6737950  45.0986600  28.9783050  64.9341010  36.5503790
  29.4178960  65.6765340  36.1359180  28.9169940  65.1767580  37.4742750
  24.4534020  65.9586840  47.4523810  24.4249450  66.3629790  46.5852240
  24.2898990  65.0297200  47.2895410  20.9686950  58.6147550  35.3540930
  20.8484550  59.3409640  34.7422200  20.6587840  57.8450460  34.8768840
  36.4048840  66.7413940  48.7487980  36.8808560  67.2196830  49.4277060
  37.0256000  66.6731430  48.0233480  18.6072320  61.7862690  41.1609570
  18.6852740  61.9211460  40.2165290  19.2214000  61.0778580  41.3537690
  19.8519950  63.4862880  37.5715750  19.4448030  63.6277470  36.7169350
  20.7432960  63.2023040  37.3686960  35.8082090  63.9326790  45.9087990
  35.9345150  63.6938670  44.9905170  35.8503470  63.1011330  46.3810070
  29.6698830  67.6354790  44.4782800  30.1843500  67.5462800  45.2805230
  28.8267910  67.9814490  44.7710710  31.6453230  67.9210130  33.9066800
  31.4854370  67.6313070  34.8048630  31.4799940  67.1450260  33.3712030
  24.1241610  67.7008660  35.6838420  23.9484090  66.7844200  35.4706220
  23.2697350  68.0595950  35.9236220  31.3479360  65.4297690  32.4664800
  30.6544520  65.4274980  31.8067080  32.0902220  65.0057010  32.0358970
  30.9129290  67.0560400  36.5413290  31.3686240  66.2749780  36.8551910
  31.2521810  67.7667220  37.0854470  35.6606100  55.9859250  46.8737730
  35.0450370  56.4938920  46.3453190  35.3402520  55.0857580  46.8163670
  18.6631840  62.8276860  43.7004030  18.8262880  62.3582220  42.8823400
  19.1284290  62.3200420  44.3652870  23.4350610  51.9582620  38.7364600
  22.9918760  52.7392160  38.4049120  23.9935600  52.2812510  39.4435540
  27.7220420  54.8251140  44.3399920  27.2599790  55.0334160  45.1519860
  27.3198530  54.0110490  44.0370590  32.7224930  56.0460090  45.4696580
  31.8718520  55.7465840  45.7905650  32.5626720  56.2902100  44.5580400
  29.8174640  57.5461840  47.5695370  30.1428050  56.7125590  47.2297600
  30.6054970  58.0690360  47.7173700  25.4726510  52.5029950  40.5954200
  25.7698840  53.4092780  40.5146220  26.0212070  52.0148730  39.9813770
  23.2264830  57.0816190  36.4645850  23.0005750  56.8653360  37.3692470
  22.4457360  57.5144650  36.1191820  25.6664040  57.9801770  47.1306120
  25.5707640  57.0396500  46.9806520  26.5096020  58.2016840  46.7354190
  29.0627460  55.7243100  37.0939780  29.4557030  56.0415300  36.2808470
  29.4244310  54.8454980  37.2084300  20.7974580  54.3915440  45.2839900
  20.4037970  55.2390650  45.4912680  20.1092980  53.7541810  45.4748540
  27.3719630  54.4750410  48.3536640  26.6817950  54.2822610  48.9882730
  28.1151930  54.7585050  48.8860940  18.0991630  52.3143900  39.3169980
  17.8104680  52.8846760  40.0294960  18.8437390  51.8348350  39.6801210
  18.2861860  56.2564020  30.5272700  18.2036530  57.1994780  30.6687690
  17.9344920  56.1138930  29.6485050  29.6482600  58.3148850  41.1890560
  28.9163720  58.8235660  41.5380660  29.2506940  57.4978830  40.8879340
  26.0859990  54.9903050  39.5943050  26.0896050  54.5493000  38.7447590
  26.9811110  55.3120380  39.7014870  21.9362370  54.8729540  38.5537260
  21.5962420  55.3504770  39.3104310  21.1739690  54.4194660  38.1938360
  30.1108510  53.7682530  40.6013500  30.1281250  54.2191180  41.4455350
  29.8624090  52.8688170  40.8146940  33.5379260  51.1814710  46.4399880
  33.8625030  50.4504370  46.9657860  33.5735770  50.8628350  45.5380870
  20.2370820  62.2028290  45.8599840  19.8525610  61.5621960  46.4582800
  20.5483010  62.9064410  46.4294570  26.3867960  59.0504830  41.3408460
  26.7538090  58.5763400  42.0869800  26.1973020  59.9246400  41.6816800
  19.2508450  53.7948520  37.4701930  18.9655370  53.4304190  38.3080550
  19.1887310  53.0628980  36.8565070  24.1767330  58.0913470  43.6592670
  23.8724400  58.9705450  43.8843030  25.1313790  58.1513260  43.6950110
  22.7049120  62.2974460  34.2559520  21.9311380  61.7572080  34.0958240
  23.4343750  61.7781070  33.9177280  33.4637100  61.2939820  40.0485910
  34.1836220  61.7895110  39.6582020  33.2618920  60.6157710  39.4039780
  28.8455900  61.3648880  45.9354910  28.7793210  60.4444550  45.6812500
  28.2161040  61.4624320  46.6499550  22.7486520  61.9654840  37.8938330
  23.2665190  61.1623100  37.8395220  22.2970540  61.9033980  38.7355160
  27.6356020  63.2321120  33.1665630  27.9771720  63.9763350  32.6708950
  26.8068730  63.5452240  33.5290460  20.2331060  58.9316210  44.8064030
  19.8746000  59.5970060  45.3937370  19.9385620  58.0999760  45.1776650
  23.4344180  59.3900450  47.6903580  23.1344320  59.5357630  46.7931400
  24.2055420  58.8305740  47.5976970  28.7772630  64.1869450  45.6858710
  28.7917170  63.2550410  45.4677620  28.0697730  64.2729210  46.3248480
  34.9883840  60.8276790  45.0327290  34.2632030  61.4205570  44.8356680
  35.5159300  60.8200330  44.2340660  34.9396950  65.2251530  34.6839450
  34.2973110  64.5707150  34.9583170  34.5527610  65.6306620  33.9080120
  30.5183430  62.5536960  38.5311140  30.8707250  61.9565090  37.8712510
  29.6345760  62.2281190  38.7019390  26.6046710  63.3134650  35.9381550
  27.2917840  63.8603860  36.3189140  25.8179130  63.8575380  35.9731160
  18.7439110  58.9307470  31.4298630  19.6133960  59.2132270  31.7134550
  18.2529430  59.7443340  31.3147440  25.9073920  60.3180680  35.5506910
  26.3636700  61.1285930  35.7767100  25.5562130  60.0003820  36.3825400
  28.2106530  65.8287020  42.7799210  28.8548750  66.0346400  43.4572630
  28.5735970  65.0675420  42.3270060  21.8085700  50.6618330  36.0229430
  21.6800330  50.6536230  36.9714350  20.9847720  51.0001420  35.6720440
  29.4838610  63.8319370  41.4976660  30.1260840  63.1312530  41.6108830
  30.0087960  64.6117810  41.3173550  31.2576230  64.6314270  44.7012720
  31.5932470  65.2180960  45.3790640  30.3376570  64.5006980  44.9310510
  19.1110360  68.1434850  31.9960260  19.4708000  68.7424190  31.3417530
  18.9702700  68.6894740  32.7695290  18.8079630  52.4209450  45.4836130
  18.0938150  52.6206370  46.0888740  19.2274670  51.6449020  45.8550930
  19.0952220  66.4089710  46.4702660  19.2043340  65.4684450  46.3298050
  18.4432780  66.6744460  45.8216390  27.0864810  64.6805600  47.8700780
  26.7661680  63.9614840  48.4146470  26.4123170  65.3560670  47.9436840
  25.1278980  65.5266050  32.8133930  25.1189080  66.2595740  32.1978440
  24.2077340  65.2797630  32.9060890  20.7285620  60.7480940  33.5580690
  20.1213570  61.4879840  33.5675990  21.2034970  60.8380300  32.7318890
  30.3018410  54.9131760  43.2337580  30.6699230  54.0926970  43.5617150
  29.4416610  54.9733650  43.6493230  28.1138580  65.5894290  31.4759120
  28.2150560  65.3858280  30.5461100  27.2140320  65.3352570  31.6806900
  25.6364470  56.1474650  35.4583020  24.9280620  56.6160990  35.8996630
  25.9208950  55.4896660  36.0928210  27.2620400  57.5671350  43.4575550
  27.7605650  58.0417170  44.1227400  27.4043350  56.6434870  43.6645580
  29.6679900  52.8725310  36.8978810  29.5447680  52.8911440  35.9488320
  30.6164460  52.9204250  37.0177210  26.7556690  68.1080610  36.1706790
  27.0098190  68.0702000  35.2486160  25.8069170  67.9813940  36.1635040
  34.4687260  53.7839310  44.3003940  33.9660860  54.5244710  44.6397750
  35.2843920  54.1723310  43.9840730  32.7609270  59.0272490  37.7465300
  31.8199410  59.0422720  37.9212990  33.0753340  58.2408450  38.1925600
  22.7390910  60.7092090  31.3069260  23.5054180  60.5973450  31.8694690
  22.8165600  60.0130060  30.6546030  21.4337670  58.1417160  31.9902150
  21.5141260  57.1944670  32.1019550  22.3257420  58.4724040  32.0962810
  34.7634850  66.1981340  39.4219560  34.8882270  67.0212510  39.8943370
  35.6300410  65.9872070  39.0743710  22.2352380  68.2912550  39.0936690
  22.9714860  67.7428010  39.3645260  22.6193300  69.1568560  38.9542680
  19.1197860  64.3586120  34.9678200  18.1937640  64.6007260  34.9583610
  19.5854290  65.1860380  34.8462950  21.2410660  67.4758620  48.2822270
  22.0423390  67.7970670  48.6957670  20.7262480  67.1154200  49.0042180
  25.3454690  67.4642860  30.9162260  26.1383300  67.7531690  30.4644050
  24.8259040  67.0335030  30.2374740  30.0775290  63.5838490  48.2297680
  29.4713450  63.6070090  47.4893430  29.7729400  62.8521530  48.7664930
  31.5075660  67.3118780  46.8407090  32.4597410  67.2276800  46.7907330
  31.3603880  67.9760490  47.5140880  18.9608470  59.9632080  47.2258320
  19.4647490  59.3839360  47.7974550  18.2215890  60.2472310  47.7634690
  25.8632090  62.6846270  30.7804610  25.7582730  62.0698620  31.5065990
  25.6956310  62.1612160  29.9967620  26.0146410  61.3703070  46.7593840
  25.2492080  61.9388070  46.6748510  26.1962370  61.0779280  45.8662070
  33.1569760  63.1008400  47.3168860  33.8979230  63.4384160  46.8136320
  32.3942440  63.2700460  46.7638630  20.9931550  58.1061670  48.1208390
  21.0336890  57.8075540  49.0293620  21.8477050  58.5069280  47.9615910
  24.7709940  60.7057220  33.2811900  25.1926360  60.5397090  34.1243290
  24.8960780  59.8957450  32.7867040  22.9337360  56.6853770  46.0882880
  22.4033820  56.1944720  45.4606220  23.6025430  57.1137970  45.5540810
  31.8315420  61.1523230  45.8524070  32.2456440  61.3068310  46.7014490
  30.8966420  61.2778450  46.0149850  32.3037590  58.4919390  47.8563220
  32.8858360  57.7371710  47.7683700  32.4799360  59.0226830  47.0794700
  23.4209660  53.6516140  46.1680170  23.3266530  53.0336890  45.4431040
  22.8407050  54.3782430  45.9410080  26.1871100  52.2089380  43.2007560
  25.7388400  52.2313640  42.3553110  25.5536300  51.8108400  43.7977860
  26.5930650  61.1043710  43.8220000  27.0118760  61.9476440  43.6496240
  25.6739280  61.2415750  43.5926780  28.9294550  58.8359890  45.2057840
  29.0490760  58.2401030  45.9452680  29.7888550  58.8729580  44.7859140
  31.2682450  59.3897080  43.7820350  30.7417670  59.9139700  43.1785490
  31.6113790  60.0224470  44.4130080  24.4438070  67.4096720  44.9377730
  23.9059160  68.1342780  44.6186430  24.6972030  66.9327060  44.1475070
  25.6963320  55.3781240  46.4633660  26.2863010  55.0697090  47.1511480
  24.8783560  54.9060990  46.6193560  30.5156750  54.9947050  46.6966680
  29.8272270  54.3328590  46.6316670  31.2362770  54.5485320  47.1415140
  27.3000280  68.6447930  45.1964380  27.2258980  69.5483070  45.5036750
  26.3979120  68.3259830  45.1686450  27.8485610  67.8106440  32.8190740
  28.7436400  68.1491410  32.8409500  27.8803240  67.0885850  32.1915020
  21.4881770  63.1833490  31.0477740  21.9256640  63.7263160  31.7035320
  21.9729500  62.3580440  31.0574080  18.7027570  65.9722520  38.4998000
  19.0330580  65.1043580  38.2676640  19.1318570  66.1781040  39.3302960
  23.2989490  64.3031530  36.1599970  22.9985030  64.1796500  37.0603880
  23.1926980  63.4440120  35.7515700  19.1917780  66.8393110  41.2379630
  18.7548770  67.0193910  42.0703780  19.7595460  67.5967730  41.0961350
  34.8279960  66.3410110  45.5256940  34.2281950  66.4002670  44.7820860
  34.9573860  65.4015090  45.6553790  19.0242210  59.3513340  37.5968510
  18.3691050  59.0824980  36.9528210  19.8620160  59.2417820  37.1470490
  36.5297840  61.6825510  38.2102780  36.9006670  60.8992830  37.8038750
  37.1699770  62.3714610  38.0320080  33.5131600  63.0662090  43.6233100
  32.6991440  63.4959250  43.8858890  33.9205800  63.6780500  43.0102150
  35.4722380  59.0578770  35.5162800  35.0965980  58.2906700  35.0844090
  34.7425500  59.4401470  36.0037730  20.0618140  59.7365910  42.1371850
  20.4291180  59.6493310  43.0167870  19.4928960  58.9732460  42.0378710
  34.8622000  58.2050290  45.1502320  34.6308090  57.9763040  44.2500270
  35.1226550  59.1249840  45.1047210  19.6134140  56.6475000  46.0430270
  18.7190190  56.6141760  46.3823980  20.1531690  56.8461790  46.8081520
  33.3010070  53.4306720  47.9282020  34.1780250  53.4390120  48.3116020
  33.3130910  52.6937560  47.3174370  18.2380290  56.5612270  33.5393840
  17.3344370  56.8242470  33.3645500  18.7220910  56.8323440  32.7593800
  34.7473340  57.2836260  38.8170040  35.2710820  56.7898910  38.1860210
  35.3332760  57.4186620  39.5617610  34.9263060  57.3676130  42.3389590
  33.9765770  57.3339670  42.4534580  35.1076070  58.2776240  42.1039360
  20.7807500  55.6177810  31.4488220  21.4899200  55.1961030  30.9635500
  20.0647440  55.6853040  30.8171570  20.4281660  51.6717140  30.4890870
  21.1509790  52.2126080  30.8072090  20.7006180  51.3980560  29.6132410
  34.2373310  56.5409610  34.7562450  34.7332430  56.3080480  35.5411330
  34.0389380  55.7021450  34.3400090  20.1173850  50.9223330  40.3913490
  20.7650040  50.3720710  39.9508650  20.5375690  51.1766480  41.2129300
  35.6660470  55.1770560  37.2900130  35.5559750  55.0226600  38.2282400
  36.4268060  54.6491500  37.0475540  34.0126190  51.1164690  43.7483130
  34.6498410  51.7298830  44.1142320  34.1601080  51.1525350  42.8032360
  33.5707650  67.8180690  37.1501370  34.1666720  67.4965260  36.4735790
  33.8285800  67.3452510  37.9414640  19.8705850  51.0779000  43.1338810
  19.5220670  51.5342820  43.8996990  19.5393550  50.1836130  43.2161240
  21.4770220  64.2498600  47.2992000  21.4339850  63.8791510  48.1806460
  21.6081230  65.1876170  47.4393820  25.1776250  65.8058190  42.9001720
  24.9367610  66.0732750  42.0132240  26.1178890  65.9763920  42.9552580
  27.3830670  52.2690880  46.6558230  27.3219560  52.8612710  47.4053640
  28.3231050  52.1616840  46.5108490  30.0205230  51.9260940  46.2950520
  30.6345640  52.2440230  45.6331600  30.5654790  51.4409530  46.9146380
  36.4380410  67.8252570  43.7012360  35.9438690  68.2221440  42.9839490
  35.8293700  67.2001780  44.0949640  20.5426490  50.6055200  46.4089580
  21.0909480  50.4243250  45.6455690  20.6081800  49.8149310  46.9445890
  21.3158250  67.1960850  44.4189780  20.7218570  67.0645550  45.1579820
  21.3082090  66.3598990  43.9531880  30.7613270  50.4893080  42.6219810
  29.8873110  50.8228190  42.4192740  30.6524020  50.0166260  43.4471680
  31.6685250  52.6963950  44.0061530  31.3398610  51.8815710  43.6263260
  32.6167550  52.6533760  43.8827220  34.1219860  68.4675990  40.9799100
  33.6622830  69.2191800  40.6057120  33.4932320  67.7482460  40.9213900
  20.9470480  64.5619230  43.3697820  20.2204540  63.9424520  43.3023770
  21.0079630  64.9559840  42.4995900  24.5515580  66.7764230  40.1547230
  25.0680600  66.1651590  39.6295490  25.2012960  67.2793010  40.6458240
  27.2911080  67.6672720  40.9816210  27.5788890  67.4127020  40.1049220
  27.8034300  67.1150080  41.5721780  28.5088090  51.4062920  41.5612720
  27.7259880  51.8808420  41.8409480  28.2151020  50.5017750  41.4525900
  33.0609160  52.1086020  39.6061810  33.5017250  52.0531120  38.7583410
  32.7916750  53.0244030  39.6771990  34.9247730  51.7401260  37.6170630
  34.8636130  50.7962480  37.4701650  35.7039760  51.8481350  38.1624090
  19.2300480  67.8793620  36.5794580  19.0622520  67.2464300  37.2776470
  18.3634990  68.0853020  36.2288770  19.8528500  51.7110400  34.0826440
  20.6107860  51.8239280  33.5090470  19.3905670  52.5479600  34.0369870
  26.3942310  53.8249670  37.0728750  25.5816820  53.4506560  36.7324630
  26.8983950  53.0694750  37.3749940  30.8967290  50.4892120  38.3111820
  31.4996660  51.0612330  38.7860340  30.1560280  51.0531560  38.0885720
  20.8363180  66.5726850  34.0244720  20.3110800  66.9534880  33.3206680
  20.7607760  67.1977620  34.7454430  22.2253650  52.2374450  32.6228410
  22.7546410  51.4504250  32.4936360  22.8581970  52.9165640  32.8563940
  24.4191490  51.9749590  35.6773800  23.7894230  51.2736900  35.8443930
  23.8796630  52.7353720  35.4606960  27.3583440  68.5888820  48.3484410
  28.2850750  68.3533090  48.3920370  27.3433870  69.4160820  47.8670440
  35.5928500  68.1314390  35.3458660  35.7680690  67.4452130  34.7019580
  34.8950070  68.6561440  34.9535330  24.5447050  51.2533570  48.1126290
  24.2631320  51.7567170  47.3487110  24.9266750  50.4555320  47.7468420
  23.4356150  68.5209230  32.8993970  24.1674970  68.2368510  32.3517860
  23.6949820  68.2822510  33.7893350  22.5970940  64.6373960  32.9040300
  21.9679820  65.1059060  33.4526130  22.7118770  63.7923180  33.3386490
  31.1462510  50.6687150  48.6906760  31.0327960  50.9881760  49.5858280
  31.9632250  51.0699660  48.3944040  33.9261000  67.8158680  48.1725450
  34.7186320  67.3207910  47.9651410  34.2194150  68.4948820  48.7801060
  30.0520660  58.6879620  19.0541500  29.9714710  57.7734230  18.7833210
  29.6385080  59.1846690  18.3481210  28.1838700  60.4658640  20.9350770
  27.4080800  59.9859080  21.2249340  28.8351630  59.7864290  20.7606930
  22.2004530  60.7778450  21.8126530  21.3689410  60.5227160  22.2123040
  22.8085510  60.8489220  22.5484450  32.2046130  64.8718830  19.7149900
  31.7427660  64.1006070  20.0437070  33.0171680  64.8984900  20.2202350
  22.1805790  64.8118540  22.0084550  22.4833830  63.9216280  21.8294770
  22.9249380  65.3688760  21.7806800  20.6096480  55.7380340  15.5968920
  19.7213180  56.0796310  15.4948800  20.8937670  55.5380660  14.7049750
  18.5729490  58.3385990  21.4808620  19.1445600  57.5708190  21.4812260
  18.5731030  58.6374750  20.5715230  28.4309440  67.1576840  19.3353890
  27.8120880  67.6134340  18.7648330  29.2861220  67.3128300  18.9343590
  27.6247690  63.1415830  20.9420930  27.5555970  62.2005770  20.7810060
  28.3867550  63.2317240  21.5143500  19.8154360  53.7470350  23.2677550
  19.6357200  52.8496100  23.5480310  19.4134440  54.2942220  23.9424500
  28.6552860  55.9486210  21.1689860  29.0317680  55.0758090  21.0563530
  28.5572370  56.2844910  20.2780300  22.7857870  54.3211840  16.6307300
  22.8924620  55.2215570  16.9376060  21.8750230  54.2729810  16.3401950
  32.4376980  53.4436650  18.1018200  33.2586600  52.9533220  18.1443680
  32.4711060  54.0334310  18.8550040  20.4341030  56.2430850  21.8759890
  21.1151140  56.5069220  22.4947290  20.1189080  55.4031720  22.2097900
  24.6265600  57.2898210  20.9632480  25.1343820  57.7879180  21.6037500
  25.1578840  56.5133410  20.7871840  29.2972790  62.0416080  16.7285800
  28.6790060  62.5065530  16.1648520  29.8096040  62.7343560  17.1455310
  24.1604550  61.5691950  23.4069400  23.8273930  62.1960870  24.0490470
  24.3371230  62.0953830  22.6271070  32.6738460  55.3837030  20.8745740
  31.9694030  55.6721920  21.4548850  33.0350620  56.1937140  20.5145300
  23.3723650  63.5372750  25.2218580  23.9897650  64.2123830  24.9403030
  22.5116770  63.9460730  25.1306080  18.6655990  62.7272610  14.1025430
  18.2883970  63.2159710  13.3710330  18.9229060  63.3997890  14.7331960
  35.7425380  54.8291820  21.2654950  34.7950290  54.8630800  21.3970380
  36.0675370  55.6430770  21.6504310  26.2744920  51.1289000  19.5610940
  26.5819900  50.5735890  18.8446440  25.3445620  51.2633460  19.3783930
  31.8259980  66.8456290  21.8518400  31.8387140  66.4418580  20.9840660
  31.2735200  67.6203580  21.7479830  33.1205400  63.5672510  16.9408570
  33.0101730  62.6246840  17.0657990  33.1173650  63.9288150  17.8271330
  31.2245420  61.7486130  23.1801010  31.6414210  61.5346240  22.3454470
  31.9485240  62.0058920  23.7509630  28.6625680  59.1937830  16.2971060
  27.7354960  59.1275210  16.5259530  28.8150500  60.1317960  16.1826300
  28.6494760  55.4654830  13.2938220  27.7098430  55.6268790  13.3790680
  28.9678020  56.1840510  12.7474210  32.6922970  60.7558130  16.8006310
  32.0735390  60.4177680  16.1532610  32.6747420  60.1117890  17.5085500
  24.2682320  59.7202570  19.0790790  23.8639320  59.0079820  18.5836690
  24.3545440  59.3755810  19.9678830  24.7364020  63.4070130  21.2430000
  24.4392310  62.8015600  20.5637780  25.6863840  63.4447440  21.1319360
  23.8282450  63.1451820  27.8937800  22.9310980  63.3691790  28.1411200
  23.8535320  63.2686760  26.9449200  30.8687670  59.9944940  13.8079060
  31.3080950  59.1567370  13.6616880  31.5816090  60.6274340  13.8943200
  28.9783050  64.9341010  17.7760300  29.4178960  65.6765340  17.3615690
  28.9169940  65.1767580  18.6999260  24.4534020  65.9586840  28.6780320
  24.4249450  66.3629790  27.8108750  24.2898990  65.0297200  28.5151920
  34.4504810  51.2487750  12.1220100  34.1377470  51.3414580  13.0219170
  35.2117280  51.8268780  12.0717530  20.9686950  58.6147550  16.5797440
  20.8484550  59.3409640  15.9678710  20.6587840  57.8450460  16.1025350
  18.6072320  61.7862690  22.3866080  18.6852740  61.9211460  21.4421800
  19.2214000  61.0778580  22.5794200  19.8519950  63.4862880  18.7972260
  19.4448030  63.6277470  17.9425860  20.7432960  63.2023040  18.5943470
  29.6698830  67.6354790  25.7039310  30.1843500  67.5462800  26.5061740
  28.8267910  67.9814490  25.9967220  31.6453230  67.9210130  15.1323310
  31.4854370  67.6313070  16.0305140  31.4799940  67.1450260  14.5968540
  24.1241610  67.7008660  16.9094930  23.9484090  66.7844200  16.6962730
  23.2697350  68.0595950  17.1492730  31.3479360  65.4297690  13.6921310
  30.6544520  65.4274980  13.0323590  32.0902220  65.0057010  13.2615480
  30.9129290  67.0560400  17.7669800  31.3686240  66.2749780  18.0808420
  31.2521810  67.7667220  18.3110980  18.6631840  62.8276860  24.9260540
  18.8262880  62.3582220  24.1079910  19.1284290  62.3200420  25.5909380
  23.4350610  51.9582620  19.9621110  22.9918760  52.7392160  19.6305630
  23.9935600  52.2812510  20.6692050  26.5509430  51.5793320  14.8426940
  25.9263610  51.5753190  15.5680250  26.4639550  50.7124280  14.4462910
  25.4726510  52.5029950  21.8210710  25.7698840  53.4092780  21.7402730
  26.0212070  52.0148730  21.2070280  23.2264830  57.0816190  17.6902360
  23.0005750  56.8653360  18.5948980  22.4457360  57.5144650  17.3448330
  30.4562590  57.0879560  16.2893010  29.8571480  57.8115360  16.1056630
  31.0042200  57.0256340  15.5069460  29.0627460  55.7243100  18.3196290
  29.4557030  56.0415300  17.5064980  29.4244310  54.8454980  18.4340810
  20.7974580  54.3915440  26.5096410  20.4037970  55.2390650  26.7169190
  20.1092980  53.7541810  26.7005050  18.0991630  52.3143900  20.5426490
  17.8104680  52.8846760  21.2551470  18.8437390  51.8348350  20.9057720
  18.2861860  56.2564020  11.7529210  18.2036530  57.1994780  11.8944200
  17.9344920  56.1138930  10.8741560  29.6482600  58.3148850  22.4147070
  28.9163720  58.8235660  22.7637170  29.2506940  57.4978830  22.1135850
  26.0859990  54.9903050  20.8199560  26.0896050  54.5493000  19.9704100
  26.9811110  55.3120380  20.9271380  21.9362370  54.8729540  19.7793770
  21.5962420  55.3504770  20.5360820  21.1739690  54.4194660  19.4194870
  26.1480140  55.9915130  13.8106320  26.2692960  55.9501610  14.7592140
  25.7628650  56.8539280  13.6553050  25.1601640  58.3016270  13.2089620
  24.5918540  57.8534520  12.5825530  25.8690640  58.6609050  12.6754770
  20.2370820  62.2028290  27.0856350  19.8525610  61.5621960  27.6839310
  20.5483010  62.9064410  27.6551080  19.2508450  53.7948520  18.6958440
  18.9655370  53.4304190  19.5337060  19.1887310  53.0628980  18.0821580
  22.7049120  62.2974460  15.4816030  21.9311380  61.7572080  15.3214750
  23.4343750  61.7781070  15.1433790  33.4637100  61.2939820  21.2742420
  34.1836220  61.7895110  20.8838530  33.2618920  60.6157710  20.6296290
  28.9247040  52.6877780  15.4171810  28.1111650  52.1890950  15.3417120
  28.7308990  53.5276030  15.0008160  31.6395430  57.0597430  13.7133970
  32.5275050  57.3714660  13.5385310  31.6100520  56.1869680  13.3214550
  22.7486520  61.9654840  19.1194840  23.2665190  61.1623100  19.0651730
  22.2970540  61.9033980  19.9611670  27.6356020  63.2321120  14.3922140
  27.9771720  63.9763350  13.8965460  26.8068730  63.5452240  14.7546970
  20.2331060  58.9316210  26.0320540  19.8746000  59.5970060  26.6193880
  19.9385620  58.0999760  26.4033160  28.7772630  64.1869450  26.9115220
  28.7917170  63.2550410  26.6934130  28.0697730  64.2729210  27.5504990
  33.9109700  58.3709270  13.1813830  33.8273420  58.8023490  12.3310270
  34.6303890  58.8307620  13.6140650  34.9396950  65.2251530  15.9095960
  34.2973110  64.5707150  16.1839680  34.5527610  65.6306620  15.1336630
  30.5183430  62.5536960  19.7567650  30.8707250  61.9565090  19.0969020
  29.6345760  62.2281190  19.9275900  26.6046710  63.3134650  17.1638060
  27.2917840  63.8603860  17.5445650  25.8179130  63.8575380  17.1987670
  18.7439110  58.9307470  12.6555140  19.6133960  59.2132270  12.9391060
  18.2529430  59.7443340  12.5403950  25.9073920  60.3180680  16.7763420
  26.3636700  61.1285930  17.0023610  25.5562130  60.0003820  17.6081910
  28.2106530  65.8287020  24.0055720  28.8548750  66.0346400  24.6829140
  28.5735970  65.0675420  23.5526570  21.8085700  50.6618330  17.2485940
  21.6800330  50.6536230  18.1970860  20.9847720  51.0001420  16.8976950
  29.4838610  63.8319370  22.7233170  30.1260840  63.1312530  22.8365340
  30.0087960  64.6117810  22.5430060  33.3294330  64.1167990  12.4472310
  33.1031910  63.3998430  13.0396950  32.9390530  63.8680430  11.6094060
  31.2576230  64.6314270  25.9269230  31.5932470  65.2180960  26.6047150
  30.3376570  64.5006980  26.1567020  19.1110360  68.1434850  13.2216770
  19.4708000  68.7424190  12.5674040  18.9702700  68.6894740  13.9951800
  18.8079630  52.4209450  26.7092640  18.0938150  52.6206370  27.3145250
  19.2274670  51.6449020  27.0807440  32.9110580  62.0339930  14.1086470
  32.6232280  62.4952620  14.8964350  33.7062750  61.5737700  14.3770690
  19.0952220  66.4089710  27.6959170  19.2043340  65.4684450  27.5554560
  18.4432780  66.6744460  27.0472900  27.0864810  64.6805600  29.0957290
  26.7661680  63.9614840  29.6402980  26.4123170  65.3560670  29.1693350
  25.1278980  65.5266050  14.0390440  25.1189080  66.2595740  13.4234950
  24.2077340  65.2797630  14.1317400  20.7285620  60.7480940  14.7837200
  20.1213570  61.4879840  14.7932500  21.2034970  60.8380300  13.9575400
  33.6680440  53.8688700  15.2681650  33.0393600  53.9734370  14.5539880
  33.1732360  54.0885480  16.0575530  28.1138580  65.5894290  12.7015630
  28.2150560  65.3858280  11.7717610  27.2140320  65.3352570  12.9063410
  25.6364470  56.1474650  16.6839530  24.9280620  56.6160990  17.1253140
  25.9208950  55.4896660  17.3184720  29.6679900  52.8725310  18.1235320
  29.5447680  52.8911440  17.1744830  30.6164460  52.9204250  18.2433720
  26.7556690  68.1080610  17.3963300  27.0098190  68.0702000  16.4742670
  25.8069170  67.9813940  17.3891550  23.8399490  54.4559730  14.0590240
  24.6890020  54.8929880  13.9930430  23.4730760  54.7679990  14.8862300
  32.7609270  59.0272490  18.9721810  31.8199410  59.0422720  19.1469500
  33.0753340  58.2408450  19.4182110  22.7390910  60.7092090  12.5325770
  23.5054180  60.5973450  13.0951200  22.8165600  60.0130060  11.8802540
  21.4337670  58.1417160  13.2158660  21.5141260  57.1944670  13.3276060
  22.3257420  58.4724040  13.3219320  34.7634850  66.1981340  20.6476070
  34.8882270  67.0212510  21.1199880  35.6300410  65.9872070  20.3000220
  22.2352380  68.2912550  20.3193200  22.9714860  67.7428010  20.5901770
  22.6193300  69.1568560  20.1799190  19.1197860  64.3586120  16.1934710
  18.1937640  64.6007260  16.1840120  19.5854290  65.1860380  16.0719460
  21.2410660  67.4758620  29.5078780  22.0423390  67.7970670  29.9214180
  20.7262480  67.1154200  30.2298690  25.3454690  67.4642860  12.1418770
  26.1383300  67.7531690  11.6900560  24.8259040  67.0335030  11.4631250
  30.0775290  63.5838490  29.4554190  29.4713450  63.6070090  28.7149940
  29.7729400  62.8521530  29.9921440  31.5075660  67.3118780  28.0663600
  32.4597410  67.2276800  28.0163840  31.3603880  67.9760490  28.7397390
  34.3984860  66.6912990  13.5655510  34.1126370  66.2778130  12.7509690
  34.2004410  67.6200700  13.4456030  18.9608470  59.9632080  28.4514830
  19.4647490  59.3839360  29.0231060  18.2215890  60.2472310  28.9891200
  25.8632090  62.6846270  12.0061120  25.7582730  62.0698620  12.7322500
  25.6956310  62.1612160  11.2224130  26.0146410  61.3703070  27.9850350
  25.2492080  61.9388070  27.9005020  26.1962370  61.0779280  27.0918580
  29.1034820  61.7466300  12.6103110  28.5544920  62.1935600  13.2545850
  29.7254080  61.2415550  13.1340780  20.9931550  58.1061670  29.3464900
  21.0336890  57.8075540  30.2550130  21.8477050  58.5069280  29.1872420
  24.7709940  60.7057220  14.5068410  25.1926360  60.5397090  15.3499800
  24.8960780  59.8957450  14.0123550  27.2837580  59.7294830  11.7545510
  27.8043240  59.0143850  11.3886660  27.9305980  60.3680700  12.0546020
  23.6668840  56.7790450  11.4526570  23.4657900  55.9157810  11.8139910
  23.4960890  56.6923810  10.5148170  24.4438070  67.4096720  26.1634240
  23.9059160  68.1342780  25.8442940  24.6972030  66.9327060  25.3731580
  31.1457150  51.5898680  13.9813450  31.4259440  50.7466580  14.3372870
  30.3722880  51.8221790  14.4952200  22.4651640  53.8791070  11.4404450
  22.7677540  53.8858500  10.5323600  23.2046230  53.5288930  11.9372110
  27.3000280  68.6447930  26.4220890  27.2258980  69.5483070  26.7293260
  26.3979120  68.3259830  26.3942960  25.6836570  52.8225690  12.4260650
  25.3358570  52.1449680  11.8463100  25.8849340  52.3615200  13.2404040
  27.8485610  67.8106440  14.0447250  28.7436400  68.1491410  14.0666010
  27.8803240  67.0885850  13.4171530  21.4881770  63.1833490  12.2734250
  21.9256640  63.7263160  12.9291830  21.9729500  62.3580440  12.2830590
  18.7027570  65.9722520  19.7254510  19.0330580  65.1043580  19.4933150
  19.1318570  66.1781040  20.5559470  23.2989490  64.3031530  17.3856480
  22.9985030  64.1796500  18.2860390  23.1926980  63.4440120  16.9772210
  19.1917780  66.8393110  22.4636140  18.7548770  67.0193910  23.2960290
  19.7595460  67.5967730  22.3217860  36.0681410  64.0827930  12.0883160
  35.2374370  64.1504580  12.5590390  36.2453240  64.9732050  11.7850020
  35.5237870  60.8275410  14.5917360  36.2856780  61.3972060  14.6977050
  35.5392240  60.2602610  15.3625670  19.0242210  59.3513340  18.8225020
  18.3691050  59.0824980  18.1784720  19.8620160  59.2417820  18.3727000
  36.5297840  61.6825510  19.4359290  36.9006670  60.8992830  19.0295260
  37.1699770  62.3714610  19.2576590  35.5757040  61.1209780  11.7489880
  35.8505880  62.0288660  11.6209100  35.3867780  61.0572310  12.6851870
  31.9732650  54.1454630  13.0443510  32.3917530  53.9585610  12.2040170
  31.6668710  53.2933680  13.3546440  35.4722380  59.0578770  16.7419310
  35.0965980  58.2906700  16.3100600  34.7425500  59.4401470  17.2294240
  20.0618140  59.7365910  23.3628360  20.4291180  59.6493310  24.2424380
  19.4928960  58.9732460  23.2635220  19.6134140  56.6475000  27.2686780
  18.7190190  56.6141760  27.6080490  20.1531690  56.8461790  28.0338030
  18.2380290  56.5612270  14.7650350  17.3344370  56.8242470  14.5902010
  18.7220910  56.8323440  13.9850310  34.7473340  57.2836260  20.0426550
  35.2710820  56.7898910  19.4116720  35.3332760  57.4186620  20.7874120
  20.7807500  55.6177810  12.6744730  21.4899200  55.1961030  12.1892010
  20.0647440  55.6853040  12.0428080  20.4281660  51.6717140  11.7147380
  21.1509790  52.2126080  12.0328600  20.7006180  51.3980560  10.8388920
  34.2373310  56.5409610  15.9818960  34.7332430  56.3080480  16.7667840
  34.0389380  55.7021450  15.5656600  20.1173850  50.9223330  21.6170000
  20.7650040  50.3720710  21.1765160  20.5375690  51.1766480  22.4385810
  35.6660470  55.1770560  18.5156640  35.5559750  55.0226600  19.4538910
  36.4268060  54.6491500  18.2732050  36.5550740  53.0078480  11.7562780
  37.4800050  52.8759660  11.5481070  36.5326530  53.0871300  12.7099230
  36.6289230  53.7789140  14.3819490  35.8340730  53.7134260  14.9112400
  36.8332510  54.7139780  14.3704840  33.5707650  67.8180690  18.3757880
  34.1666720  67.4965260  17.6992300  33.8285800  67.3452510  19.1671150
  19.8705850  51.0779000  24.3595320  19.5220670  51.5342820  25.1253500
  19.5393550  50.1836130  24.4417750  21.4770220  64.2498600  28.5248510
  21.4339850  63.8791510  29.4062970  21.6081230  65.1876170  28.6650330
  25.1776250  65.8058190  24.1258230  24.9367610  66.0732750  23.2388750
  26.1178890  65.9763920  24.1809090  20.5426490  50.6055200  27.6346090
  21.0909480  50.4243250  26.8712200  20.6081800  49.8149310  28.1702400
  21.3158250  67.1960850  25.6446290  20.7218570  67.0645550  26.3836330
  21.3082090  66.3598990  25.1788390  34.1219860  68.4675990  22.2055610
  33.6622830  69.2191800  21.8313630  33.4932320  67.7482460  22.1470410
  20.9470480  64.5619230  24.5954330  20.2204540  63.9424520  24.5280280
  21.0079630  64.9559840  23.7252410  24.5515580  66.7764230  21.3803740
  25.0680600  66.1651590  20.8552000  25.2012960  67.2793010  21.8714750
  27.2911080  67.6672720  22.2072720  27.5788890  67.4127020  21.3305730
  27.8034300  67.1150080  22.7978290  33.0609160  52.1086020  20.8318320
  33.5017250  52.0531120  19.9839920  32.7916750  53.0244030  20.9028500
  34.9247730  51.7401260  18.8427140  34.8636130  50.7962480  18.6958160
  35.7039760  51.8481350  19.3880600  19.2300480  67.8793620  17.8051090
  19.0622520  67.2464300  18.5032980  18.3634990  68.0853020  17.4545280
  19.8528500  51.7110400  15.3082950  20.6107860  51.8239280  14.7346980
  19.3905670  52.5479600  15.2626380  26.3942310  53.8249670  18.2985260
  25.5816820  53.4506560  17.9581140  26.8983950  53.0694750  18.6006450
  30.8967290  50.4892120  19.5368330  31.4996660  51.0612330  20.0116850
  30.1560280  51.0531560  19.3142230  34.0401890  50.8913680  14.8108610
  34.2352520  51.7897130  15.0776040  33.2531760  50.6600760  15.3041560
  20.8363180  66.5726850  15.2501230  20.3110800  66.9534880  14.5463190
  20.7607760  67.1977620  15.9710940  22.2253650  52.2374450  13.8484920
  22.7546410  51.4504250  13.7192870  22.8581970  52.9165640  14.0820450
  24.4191490  51.9749590  16.9030310  23.7894230  51.2736900  17.0700440
  23.8796630  52.7353720  16.6863470  27.3583440  68.5888820  29.5740920
  28.2850750  68.3533090  29.6176880  27.3433870  69.4160820  29.0926950
  35.5928500  68.1314390  16.5715170  35.7680690  67.4452130  15.9276090
  34.8950070  68.6561440  16.1791840  23.4356150  68.5209230  14.1250480
  24.1674970  68.2368510  13.5774370  23.6949820  68.2822510  15.0149860
  22.5970940  64.6373960  14.1296810  21.9679820  65.1059060  14.6782640
  22.7118770  63.7923180  14.5643000  28.1838700  60.4658640   2.1607280
  27.4080800  59.9859080   2.4505850  28.8351630  59.7864290   1.9863440
  22.2004530  60.7778450   3.0383040  21.3689410  60.5227160   3.4379550
  22.8085510  60.8489220   3.7740960  22.1805790  64.8118540   3.2341060
  22.4833830  63.9216280   3.0551280  22.9249380  65.3688760   3.0063310
  18.5729490  58.3385990   2.7065130  19.1445600  57.5708190   2.7068770
  18.5731030  58.6374750   1.7971740  27.6247690  63.1415830   2.1677440
  27.5555970  62.2005770   2.0066570  28.3867550  63.2317240   2.7400010
  19.8154360  53.7470350   4.4934060  19.6357200  52.8496100   4.7736820
  19.4134440  54.2942220   5.1681010  28.6552860  55.9486210   2.3946370
  29.0317680  55.0758090   2.2820040  28.5572370  56.2844910   1.5036810
  20.4341030  56.2430850   3.1016400  21.1151140  56.5069220   3.7203800
  20.1189080  55.4031720   3.4354410  24.6265600  57.2898210   2.1888990
  25.1343820  57.7879180   2.8294010  25.1578840  56.5133410   2.0128350
  36.7276530  55.4603400   5.8918340  36.0228700  55.8485110   5.3733450
  36.9934450  56.1553690   6.4939270  22.9101700  51.9296770   6.4552410
  22.9120140  52.4469160   5.6498310  22.0806010  51.4526950   6.4322340
  24.1604550  61.5691950   4.6325910  23.8273930  62.1960870   5.2746980
  24.3371230  62.0953830   3.8527580  32.6738460  55.3837030   2.1002250
  31.9694030  55.6721920   2.6805360  33.0350620  56.1937140   1.7401810
  22.5917030  53.6406730   4.4622860  22.9333840  54.4848780   4.1676730
  21.6532840  53.7890470   4.5788200  23.3723650  63.5372750   6.4475090
  23.9897650  64.2123830   6.1659540  22.5116770  63.9460730   6.3562590
  34.2901240  65.0012160   4.3629730  33.6064760  65.6711270   4.3546400
  34.8295530  65.1992810   3.5974590  35.7425380  54.8291820   2.4911460
  34.7950290  54.8630800   2.6226890  36.0675370  55.6430770   2.8760820
  31.8259980  66.8456290   3.0774910  31.8387140  66.4418580   2.2097170
  31.2735200  67.6203580   2.9736340  31.2245420  61.7486130   4.4057520
  31.6414210  61.5346240   3.5710980  31.9485240  62.0058920   4.9766140
  35.1707520  60.1473350   4.4973760  34.3426150  60.2166440   4.0223890
  35.7658000  60.7327660   4.0289590  32.1349530  56.9342670   5.4428630
  31.7220710  57.7596380   5.6968620  31.4025480  56.3487710   5.2504990
  24.7364020  63.4070130   2.4686510  24.4392310  62.8015600   1.7894290
  25.6863840  63.4447440   2.3575870  22.9810940  56.4945780   4.0846340
  23.5325530  56.6041120   3.3099590  23.4954450  56.8683380   4.8001570
  32.8249630  66.9802000   6.1309610  32.3480190  67.7874190   5.9382220
  32.1411420  66.3280330   6.2835820  23.8282450  63.1451820   9.1194310
  22.9310980  63.3691790   9.3667710  23.8535320  63.2686760   8.1705710
  22.6553670  60.0165140   7.6951680  22.5161440  60.8887940   8.0639080
  21.7735030  59.6737950   7.5499620  24.4534020  65.9586840   9.9036830
  24.4249450  66.3629790   9.0365260  24.2898990  65.0297200   9.7408430
  36.4048840  66.7413940  11.2001000  36.8808560  67.2196830  11.8790080
  37.0256000  66.6731430  10.4746500  18.6072320  61.7862690   3.6122590
  18.6852740  61.9211460   2.6678310  19.2214000  61.0778580   3.8050710
  35.8082090  63.9326790   8.3601010  35.9345150  63.6938670   7.4418190
  35.8503470  63.1011330   8.8323090  29.6698830  67.6354790   6.9295820
  30.1843500  67.5462800   7.7318250  28.8267910  67.9814490   7.2223730
  35.6606100  55.9859250   9.3250750  35.0450370  56.4938920   8.7966210
  35.3402520  55.0857580   9.2676690  18.6631840  62.8276860   6.1517050
  18.8262880  62.3582220   5.3336420  19.1284290  62.3200420   6.8165890
  27.7220420  54.8251140   6.7912940  27.2599790  55.0334160   7.6032880
  27.3198530  54.0110490   6.4883610  32.7224930  56.0460090   7.9209600
  31.8718520  55.7465840   8.2418670  32.5626720  56.2902100   7.0093420
  29.8174640  57.5461840  10.0208390  30.1428050  56.7125590   9.6810620
  30.6054970  58.0690360  10.1686720  25.4726510  52.5029950   3.0467220
  25.7698840  53.4092780   2.9659240  26.0212070  52.0148730   2.4326790
  25.6664040  57.9801770   9.5819140  25.5707640  57.0396500   9.4319540
  26.5096020  58.2016840   9.1867210  20.7974580  54.3915440   7.7352920
  20.4037970  55.2390650   7.9425700  20.1092980  53.7541810   7.9261560
  27.3719630  54.4750410  10.8049660  26.6817950  54.2822610  11.4395750
  28.1151930  54.7585050  11.3373960  18.0991630  52.3143900   1.7683000
  17.8104680  52.8846760   2.4807980  18.8437390  51.8348350   2.1314230
  29.6482600  58.3148850   3.6403580  28.9163720  58.8235660   3.9893680
  29.2506940  57.4978830   3.3392360  30.1108510  53.7682530   3.0526520
  30.1281250  54.2191180   3.8968370  29.8624090  52.8688170   3.2659960
  33.5379260  51.1814710   8.8912900  33.8625030  50.4504370   9.4170880
  33.5735770  50.8628350   7.9893890  20.2370820  62.2028290   8.3112860
  19.8525610  61.5621960   8.9095820  20.5483010  62.9064410   8.8807590
  26.3867960  59.0504830   3.7921480  26.7538090  58.5763400   4.5382820
  26.1973020  59.9246400   4.1329820  24.1767330  58.0913470   6.1105690
  23.8724400  58.9705450   6.3356050  25.1313790  58.1513260   6.1463130
  33.4637100  61.2939820   2.4998930  34.1836220  61.7895110   2.1095040
  33.2618920  60.6157710   1.8552800  28.8455900  61.3648880   8.3867930
  28.7793210  60.4444550   8.1325520  28.2161040  61.4624320   9.1012570
  20.2331060  58.9316210   7.2577050  19.8746000  59.5970060   7.8450390
  19.9385620  58.0999760   7.6289670  23.4344180  59.3900450  10.1416600
  23.1344320  59.5357630   9.2444420  24.2055420  58.8305740  10.0489990
  28.7772630  64.1869450   8.1371730  28.7917170  63.2550410   7.9190640
  28.0697730  64.2729210   8.7761500  34.9883840  60.8276790   7.4840310
  34.2632030  61.4205570   7.2869700  35.5159300  60.8200330   6.6853680
  28.2106530  65.8287020   5.2312230  28.8548750  66.0346400   5.9085650
  28.5735970  65.0675420   4.7783080  29.4838610  63.8319370   3.9489680
  30.1260840  63.1312530   4.0621850  30.0087960  64.6117810   3.7686570
  31.2576230  64.6314270   7.1525740  31.5932470  65.2180960   7.8303660
  30.3376570  64.5006980   7.3823530  18.8079630  52.4209450   7.9349150
  18.0938150  52.6206370   8.5401760  19.2274670  51.6449020   8.3063950
  19.0952220  66.4089710   8.9215680  19.2043340  65.4684450   8.7811070
  18.4432780  66.6744460   8.2729410  27.0864810  64.6805600  10.3213800
  26.7661680  63.9614840  10.8659490  26.4123170  65.3560670  10.3949860
  30.3018410  54.9131760   5.6850600  30.6699230  54.0926970   6.0130170
  29.4416610  54.9733650   6.1006250  27.2620400  57.5671350   5.9088570
  27.7605650  58.0417170   6.5740420  27.4043350  56.6434870   6.1158600
  34.4687260  53.7839310   6.7516960  33.9660860  54.5244710   7.0910770
  35.2843920  54.1723310   6.4353750  34.7634850  66.1981340   1.8732580
  34.8882270  67.0212510   2.3456390  35.6300410  65.9872070   1.5256730
  21.2410660  67.4758620  10.7335290  22.0423390  67.7970670  11.1470690
  20.7262480  67.1154200  11.4555200  30.0775290  63.5838490  10.6810700
  29.4713450  63.6070090   9.9406450  29.7729400  62.8521530  11.2177950
  31.5075660  67.3118780   9.2920110  32.4597410  67.2276800   9.2420350
  31.3603880  67.9760490   9.9653900  18.9608470  59.9632080   9.6771340
  19.4647490  59.3839360  10.2487570  18.2215890  60.2472310  10.2147710
  26.0146410  61.3703070   9.2106860  25.2492080  61.9388070   9.1261530
  26.1962370  61.0779280   8.3175090  33.1569760  63.1008400   9.7681880
  33.8979230  63.4384160   9.2649340  32.3942440  63.2700460   9.2151650
  20.9931550  58.1061670  10.5721410  21.0336890  57.8075540  11.4806640
  21.8477050  58.5069280  10.4128930  22.9337360  56.6853770   8.5395900
  22.4033820  56.1944720   7.9119240  23.6025430  57.1137970   8.0053830
  31.8315420  61.1523230   8.3037090  32.2456440  61.3068310   9.1527510
  30.8966420  61.2778450   8.4662870  32.3037590  58.4919390  10.3076240
  32.8858360  57.7371710  10.2196720  32.4799360  59.0226830   9.5307720
  23.4209660  53.6516140   8.6193190  23.3266530  53.0336890   7.8944060
  22.8407050  54.3782430   8.3923100  26.1871100  52.2089380   5.6520580
  25.7388400  52.2313640   4.8066130  25.5536300  51.8108400   6.2490880
  26.5930650  61.1043710   6.2733020  27.0118760  61.9476440   6.1009260
  25.6739280  61.2415750   6.0439800  28.9294550  58.8359890   7.6570860
  29.0490760  58.2401030   8.3965700  29.7888550  58.8729580   7.2372160
  31.2682450  59.3897080   6.2333370  30.7417670  59.9139700   5.6298510
  31.6113790  60.0224470   6.8643100  24.4438070  67.4096720   7.3890750
  23.9059160  68.1342780   7.0699450  24.6972030  66.9327060   6.5988090
  25.6963320  55.3781240   8.9146680  26.2863010  55.0697090   9.6024500
  24.8783560  54.9060990   9.0706580  30.5156750  54.9947050   9.1479700
  29.8272270  54.3328590   9.0829690  31.2362770  54.5485320   9.5928160
  27.3000280  68.6447930   7.6477400  27.2258980  69.5483070   7.9549770
  26.3979120  68.3259830   7.6199470  19.1917780  66.8393110   3.6892650
  18.7548770  67.0193910   4.5216800  19.7595460  67.5967730   3.5474370
  34.8279960  66.3410110   7.9769960  34.2281950  66.4002670   7.2333880
  34.9573860  65.4015090   8.1066810  33.5131600  63.0662090   6.0746120
  32.6991440  63.4959250   6.3371910  33.9205800  63.6780500   5.4615170
  20.0618140  59.7365910   4.5884870  20.4291180  59.6493310   5.4680890
  19.4928960  58.9732460   4.4891730  34.8622000  58.2050290   7.6015340
  34.6308090  57.9763040   6.7013290  35.1226550  59.1249840   7.5560230
  19.6134140  56.6475000   8.4943290  18.7190190  56.6141760   8.8337000
  20.1531690  56.8461790   9.2594540  33.3010070  53.4306720  10.3795040
  34.1780250  53.4390120  10.7629040  33.3130910  52.6937560   9.7687390
  34.9263060  57.3676130   4.7902610  33.9765770  57.3339670   4.9047600
  35.1076070  58.2776240   4.5552380  20.1173850  50.9223330   2.8426510
  20.7650040  50.3720710   2.4021670  20.5375690  51.1766480   3.6642320
  34.0126190  51.1164690   6.1996150  34.6498410  51.7298830   6.5655340
  34.1601080  51.1525350   5.2545380  19.8705850  51.0779000   5.5851830
  19.5220670  51.5342820   6.3510010  19.5393550  50.1836130   5.6674260
  21.4770220  64.2498600   9.7505020  21.4339850  63.8791510  10.6319480
  21.6081230  65.1876170   9.8906840  25.1776250  65.8058190   5.3514740
  24.9367610  66.0732750   4.4645260  26.1178890  65.9763920   5.4065600
  27.3830670  52.2690880   9.1071250  27.3219560  52.8612710   9.8566660
  28.3231050  52.1616840   8.9621510  30.0205230  51.9260940   8.7463540
  30.6345640  52.2440230   8.0844620  30.5654790  51.4409530   9.3659400
  36.4380410  67.8252570   6.1525380  35.9438690  68.2221440   5.4352510
  35.8293700  67.2001780   6.5462660  20.5426490  50.6055200   8.8602600
  21.0909480  50.4243250   8.0968710  20.6081800  49.8149310   9.3958910
  21.3158250  67.1960850   6.8702800  20.7218570  67.0645550   7.6092840
  21.3082090  66.3598990   6.4044900  30.7613270  50.4893080   5.0732830
  29.8873110  50.8228190   4.8705760  30.6524020  50.0166260   5.8984700
  31.6685250  52.6963950   6.4574550  31.3398610  51.8815710   6.0776280
  32.6167550  52.6533760   6.3340240  34.1219860  68.4675990   3.4312120
  33.6622830  69.2191800   3.0570140  33.4932320  67.7482460   3.3726920
  20.9470480  64.5619230   5.8210840  20.2204540  63.9424520   5.7536790
  21.0079630  64.9559840   4.9508920  24.5515580  66.7764230   2.6060250
  25.0680600  66.1651590   2.0808510  25.2012960  67.2793010   3.0971260
  27.2911080  67.6672720   3.4329230  27.5788890  67.4127020   2.5562240
  27.8034300  67.1150080   4.0234800  28.5088090  51.4062920   4.0125740
  27.7259880  51.8808420   4.2922500  28.2151020  50.5017750   3.9038920
  27.3583440  68.5888820  10.7997430  28.2850750  68.3533090  10.8433390
  27.3433870  69.4160820  10.3183460  24.5447050  51.2533570  10.5639310
  24.2631320  51.7567170   9.8000130  24.9266750  50.4555320  10.1981440
  31.1462510  50.6687150  11.1419780  31.0327960  50.9881760  12.0371300
  31.9632250  51.0699660  10.8457060  33.9261000  67.8158680  10.6238470
  34.7186320  67.3207910  10.4164430  34.2194150  68.4948820  11.2314080
  30.0520660  39.9136130  56.6028480  29.9714710  38.9990740  56.3320190
  29.6385080  40.4103200  55.8968190  32.2046130  46.0975340  57.2636880
  31.7427660  45.3262580  57.5924050  33.0171680  46.1241410  57.7689330
  20.6096480  36.9636850  53.1455900  19.7213180  37.3052820  53.0435780
  20.8937670  36.7637170  52.2536730  28.4309440  48.3833350  56.8840870
  27.8120880  48.8390850  56.3135310  29.2861220  48.5384810  56.4830570
  22.7857870  35.5468350  54.1794280  22.8924620  36.4472080  54.4863040
  21.8750230  35.4986320  53.8888930  32.4376980  34.6693160  55.6505180
  33.2586600  34.1789730  55.6930660  32.4711060  35.2590820  56.4037020
  29.2972790  43.2672590  54.2772780  28.6790060  43.7322040  53.7135500
  29.8096040  43.9600070  54.6942290  18.6655990  43.9529120  51.6512410
  18.2883970  44.4416220  50.9197310  18.9229060  44.6254400  52.2818940
  26.2744920  32.3545510  57.1097920  26.5819900  31.7992400  56.3933420
  25.3445620  32.4889970  56.9270910  33.1205400  44.7929020  54.4895550
  33.0101730  43.8503350  54.6144970  33.1173650  45.1544660  55.3758310
  28.6625680  40.4194340  53.8458040  27.7354960  40.3531720  54.0746510
  28.8150500  41.3574470  53.7313280  28.6494760  36.6911340  50.8425200
  27.7098430  36.8525300  50.9277660  28.9678020  37.4097020  50.2961190
  32.6922970  41.9814640  54.3493290  32.0735390  41.6434190  53.7019590
  32.6747420  41.3374400  55.0572480  24.2682320  40.9459080  56.6277770
  23.8639320  40.2336330  56.1323670  24.3545440  40.6012320  57.5165810
  30.8687670  41.2201450  51.3566040  31.3080950  40.3823880  51.2103860
  31.5816090  41.8530850  51.4430180  28.9783050  46.1597520  55.3247280
  29.4178960  46.9021850  54.9102670  28.9169940  46.4024090  56.2486240
  34.4504810  32.4744260  49.6707080  34.1377470  32.5671090  50.5706150
  35.2117280  33.0525290  49.6204510  20.9686950  39.8404060  54.1284420
  20.8484550  40.5666150  53.5165690  20.6587840  39.0706970  53.6512330
  19.8519950  44.7119390  56.3459240  19.4448030  44.8533980  55.4912840
  20.7432960  44.4279550  56.1430450  31.6453230  49.1466640  52.6810290
  31.4854370  48.8569580  53.5792120  31.4799940  48.3706770  52.1455520
  24.1241610  48.9265170  54.4581910  23.9484090  48.0100710  54.2449710
  23.2697350  49.2852460  54.6979710  31.3479360  46.6554200  51.2408290
  30.6544520  46.6531490  50.5810570  32.0902220  46.2313520  50.8102460
  30.9129290  48.2816910  55.3156780  31.3686240  47.5006290  55.6295400
  31.2521810  48.9923730  55.8597960  23.4350610  33.1839130  57.5108090
  22.9918760  33.9648670  57.1792610  23.9935600  33.5069020  58.2179030
  26.5509430  32.8049830  52.3913920  25.9263610  32.8009700  53.1167230
  26.4639550  31.9380790  51.9949890  23.2264830  38.3072700  55.2389340
  23.0005750  38.0909870  56.1435960  22.4457360  38.7401160  54.8935310
  30.4562590  38.3136070  53.8379990  29.8571480  39.0371870  53.6543610
  31.0042200  38.2512850  53.0556440  29.0627460  36.9499610  55.8683270
  29.4557030  37.2671810  55.0551960  29.4244310  36.0711490  55.9827790
  18.2861860  37.4820530  49.3016190  18.2036530  38.4251290  49.4431180
  17.9344920  37.3395440  48.4228540  26.0859990  36.2159560  58.3686540
  26.0896050  35.7749510  57.5191080  26.9811110  36.5376890  58.4758360
  21.9362370  36.0986050  57.3280750  21.5962420  36.5761280  58.0847800
  21.1739690  35.6451170  56.9681850  26.1480140  37.2171640  51.3593300
  26.2692960  37.1758120  52.3079120  25.7628650  38.0795790  51.2040030
  25.1601640  39.5272780  50.7576600  24.5918540  39.0791030  50.1312510
  25.8690640  39.8865560  50.2241750  19.2508450  35.0205030  56.2445420
  18.9655370  34.6560700  57.0824040  19.1887310  34.2885490  55.6308560
  22.7049120  43.5230970  53.0303010  21.9311380  42.9828590  52.8701730
  23.4343750  43.0037580  52.6920770  28.9247040  33.9134290  52.9658790
  28.1111650  33.4147460  52.8904100  28.7308990  34.7532540  52.5495140
  31.6395430  38.2853940  51.2620950  32.5275050  38.5971170  51.0872290
  31.6100520  37.4126190  50.8701530  22.7486520  43.1911350  56.6681820
  23.2665190  42.3879610  56.6138710  22.2970540  43.1290490  57.5098650
  27.6356020  44.4577630  51.9409120  27.9771720  45.2019860  51.4452440
  26.8068730  44.7708750  52.3033950  33.9109700  39.5965780  50.7300810
  33.8273420  40.0280000  49.8797250  34.6303890  40.0564130  51.1627630
  34.9396950  46.4508040  53.4582940  34.2973110  45.7963660  53.7326660
  34.5527610  46.8563130  52.6823610  30.5183430  43.7793470  57.3054630
  30.8707250  43.1821600  56.6456000  29.6345760  43.4537700  57.4762880
  26.6046710  44.5391160  54.7125040  27.2917840  45.0860370  55.0932630
  25.8179130  45.0831890  54.7474650  18.7439110  40.1563980  50.2042120
  19.6133960  40.4388780  50.4878040  18.2529430  40.9699850  50.0890930
  25.9073920  41.5437190  54.3250400  26.3636700  42.3542440  54.5510590
  25.5562130  41.2260330  55.1568890  21.8085700  31.8874840  54.7972920
  21.6800330  31.8792740  55.7457840  20.9847720  32.2257930  54.4463930
  33.3294330  45.3424500  49.9959290  33.1031910  44.6254940  50.5883930
  32.9390530  45.0936940  49.1581040  19.1110360  49.3691360  50.7703750
  19.4708000  49.9680700  50.1161020  18.9702700  49.9151250  51.5438780
  32.9110580  43.2596440  51.6573450  32.6232280  43.7209130  52.4451330
  33.7062750  42.7994210  51.9257670  25.1278980  46.7522560  51.5877420
  25.1189080  47.4852250  50.9721930  24.2077340  46.5054140  51.6804380
  20.7285620  41.9737450  52.3324180  20.1213570  42.7136350  52.3419480
  21.2034970  42.0636810  51.5062380  33.6680440  35.0945210  52.8168630
  33.0393600  35.1990880  52.1026860  33.1732360  35.3141990  53.6062510
  28.1138580  46.8150800  50.2502610  28.2150560  46.6114790  49.3204590
  27.2140320  46.5609080  50.4550390  25.6364470  37.3731160  54.2326510
  24.9280620  37.8417500  54.6740120  25.9208950  36.7153170  54.8671700
  29.6679900  34.0981820  55.6722300  29.5447680  34.1167950  54.7231810
  30.6164460  34.1460760  55.7920700  26.7556690  49.3337120  54.9450280
  27.0098190  49.2958510  54.0229650  25.8069170  49.2070450  54.9378530
  23.8399490  35.6816240  51.6077220  24.6890020  36.1186390  51.5417410
  23.4730760  35.9936500  52.4349280  32.7609270  40.2529000  56.5208790
  31.8199410  40.2679230  56.6956480  33.0753340  39.4664960  56.9669090
  22.7390910  41.9348600  50.0812750  23.5054180  41.8229960  50.6438180
  22.8165600  41.2386570  49.4289520  21.4337670  39.3673670  50.7645640
  21.5141260  38.4201180  50.8763040  22.3257420  39.6980550  50.8706300
  22.2352380  49.5169060  57.8680180  22.9714860  48.9684520  58.1388750
  22.6193300  50.3825070  57.7286170  19.1197860  45.5842630  53.7421690
  18.1937640  45.8263770  53.7327100  19.5854290  46.4116890  53.6206440
  25.3454690  48.6899370  49.6905750  26.1383300  48.9788200  49.2387540
  24.8259040  48.2591540  49.0118230  34.3984860  47.9169500  51.1142490
  34.1126370  47.5034640  50.2996670  34.2004410  48.8457210  50.9943010
  25.8632090  43.9102780  49.5548100  25.7582730  43.2955130  50.2809480
  25.6956310  43.3868670  48.7711110  29.1034820  42.9722810  50.1590090
  28.5544920  43.4192110  50.8032830  29.7254080  42.4672060  50.6827760
  24.7709940  41.9313730  52.0555390  25.1926360  41.7653600  52.8986780
  24.8960780  41.1213960  51.5610530  27.2837580  40.9551340  49.3032490
  27.8043240  40.2400360  48.9373640  27.9305980  41.5937210  49.6033000
  23.6668840  38.0046960  49.0013550  23.4657900  37.1414320  49.3626890
  23.4960890  37.9180320  48.0635150  31.1457150  32.8155190  51.5300430
  31.4259440  31.9723090  51.8859850  30.3722880  33.0478300  52.0439180
  22.4651640  35.1047580  48.9891430  22.7677540  35.1115010  48.0810580
  23.2046230  34.7545440  49.4859090  25.6836570  34.0482200  49.9747630
  25.3358570  33.3706190  49.3950080  25.8849340  33.5871710  50.7891020
  27.8485610  49.0362950  51.5934230  28.7436400  49.3747920  51.6152990
  27.8803240  48.3142360  50.9658510  21.4881770  44.4090000  49.8221230
  21.9256640  44.9519670  50.4778810  21.9729500  43.5836950  49.8317570
  18.7027570  47.1979030  57.2741490  19.0330580  46.3300090  57.0420130
  19.1318570  47.4037550  58.1046450  23.2989490  45.5288040  54.9343460
  22.9985030  45.4053010  55.8347370  23.1926980  44.6696630  54.5259190
  36.0681410  45.3084440  49.6370140  35.2374370  45.3761090  50.1077370
  36.2453240  46.1988560  49.3337000  35.5237870  42.0531920  52.1404340
  36.2856780  42.6228570  52.2464030  35.5392240  41.4859120  52.9112650
  19.0242210  40.5769850  56.3712000  18.3691050  40.3081490  55.7271700
  19.8620160  40.4674330  55.9213980  36.5297840  42.9082020  56.9846270
  36.9006670  42.1249340  56.5782240  37.1699770  43.5971120  56.8063570
  35.5757040  42.3466290  49.2976860  35.8505880  43.2545170  49.1696080
  35.3867780  42.2828820  50.2338850  31.9732650  35.3711140  50.5930490
  32.3917530  35.1842120  49.7527150  31.6668710  34.5190190  50.9033420
  35.4722380  40.2835280  54.2906290  35.0965980  39.5163210  53.8587580
  34.7425500  40.6657980  54.7781220  18.2380290  37.7868780  52.3137330
  17.3344370  38.0498980  52.1388990  18.7220910  38.0579950  51.5337290
  34.7473340  38.5092770  57.5913530  35.2710820  38.0155420  56.9603700
  35.3332760  38.6443130  58.3361100  20.7807500  36.8434320  50.2231710
  21.4899200  36.4217540  49.7378990  20.0647440  36.9109550  49.5915060
  20.4281660  32.8973650  49.2634360  21.1509790  33.4382590  49.5815580
  20.7006180  32.6237070  48.3875900  34.2373310  37.7666120  53.5305940
  34.7332430  37.5336990  54.3154820  34.0389380  36.9277960  53.1143580
  35.6660470  36.4027070  56.0643620  35.5559750  36.2483110  57.0025890
  36.4268060  35.8748010  55.8219030  36.5550740  34.2334990  49.3049760
  37.4800050  34.1016170  49.0968050  36.5326530  34.3127810  50.2586210
  36.6289230  35.0045650  51.9306470  35.8340730  34.9390770  52.4599380
  36.8332510  35.9396290  51.9191820  33.5707650  49.0437200  55.9244860
  34.1666720  48.7221770  55.2479280  33.8285800  48.5709020  56.7158130
  33.0609160  33.3342530  58.3805300  33.5017250  33.2787630  57.5326900
  32.7916750  34.2500540  58.4515480  34.9247730  32.9657770  56.3914120
  34.8636130  32.0218990  56.2445140  35.7039760  33.0737860  56.9367580
  19.2300480  49.1050130  55.3538070  19.0622520  48.4720810  56.0519960
  18.3634990  49.3109530  55.0032260  19.8528500  32.9366910  52.8569930
  20.6107860  33.0495790  52.2833960  19.3905670  33.7736110  52.8113360
  26.3942310  35.0506180  55.8472240  25.5816820  34.6763070  55.5068120
  26.8983950  34.2951260  56.1493430  30.8967290  31.7148630  57.0855310
  31.4996660  32.2868840  57.5603830  30.1560280  32.2788070  56.8629210
  34.0401890  32.1170190  52.3595590  34.2352520  33.0153640  52.6263020
  33.2531760  31.8857270  52.8528540  20.8363180  47.7983360  52.7988210
  20.3110800  48.1791390  52.0950170  20.7607760  48.4234130  53.5197920
  22.2253650  33.4630960  51.3971900  22.7546410  32.6760760  51.2679850
  22.8581970  34.1422150  51.6307430  24.4191490  33.2006100  54.4517290
  23.7894230  32.4993410  54.6187420  23.8796630  33.9610230  54.2350450
  35.5928500  49.3570900  54.1202150  35.7680690  48.6708640  53.4763070
  34.8950070  49.8817950  53.7278820  23.4356150  49.7465740  51.6737460
  24.1674970  49.4625020  51.1261350  23.6949820  49.5079020  52.5636840
  22.5970940  45.8630470  51.6783790  21.9679820  46.3315570  52.2269620
  22.7118770  45.0179690  52.1129980  30.0520660  39.9136130  37.8284990
  29.9714710  38.9990740  37.5576700  29.6385080  40.4103200  37.1224700
  28.1838700  41.6915150  39.7094260  27.4080800  41.2115590  39.9992830
  28.8351630  41.0120800  39.5350420  22.2004530  42.0034960  40.5870020
  21.3689410  41.7483670  40.9866530  22.8085510  42.0745730  41.3227940
  32.2046130  46.0975340  38.4893390  31.7427660  45.3262580  38.8180560
  33.0171680  46.1241410  38.9945840  22.1805790  46.0375050  40.7828040
  22.4833830  45.1472790  40.6038260  22.9249380  46.5945270  40.5550290
  20.6096480  36.9636850  34.3712410  19.7213180  37.3052820  34.2692290
  20.8937670  36.7637170  33.4793240  18.5729490  39.5642500  40.2552110
  19.1445600  38.7964700  40.2555750  18.5731030  39.8631260  39.3458720
  28.4309440  48.3833350  38.1097380  27.8120880  48.8390850  37.5391820
  29.2861220  48.5384810  37.7087080  27.6247690  44.3672340  39.7164420
  27.5555970  43.4262280  39.5553550  28.3867550  44.4573750  40.2886990
  19.8154360  34.9726860  42.0421040  19.6357200  34.0752610  42.3223800
  19.4134440  35.5198730  42.7167990  28.6552860  37.1742720  39.9433350
  29.0317680  36.3014600  39.8307020  28.5572370  37.5101420  39.0523790
  22.7857870  35.5468350  35.4050790  22.8924620  36.4472080  35.7119550
  21.8750230  35.4986320  35.1145440  32.4376980  34.6693160  36.8761690
  33.2586600  34.1789730  36.9187170  32.4711060  35.2590820  37.6293530
  20.4341030  37.4687360  40.6503380  21.1151140  37.7325730  41.2690780
  20.1189080  36.6288230  40.9841390  24.6265600  38.5154720  39.7375970
  25.1343820  39.0135690  40.3780990  25.1578840  37.7389920  39.5615330
  36.7276530  36.6859910  43.4405320  36.0228700  37.0741620  42.9220430
  36.9934450  37.3810200  44.0426250  22.9101700  33.1553280  44.0039390
  22.9120140  33.6725670  43.1985290  22.0806010  32.6783460  43.9809320
  29.2972790  43.2672590  35.5029290  28.6790060  43.7322040  34.9392010
  29.8096040  43.9600070  35.9198800  24.1604550  42.7948460  42.1812890
  23.8273930  43.4217380  42.8233960  24.3371230  43.3210340  41.4014560
  32.6738460  36.6093540  39.6489230  31.9694030  36.8978430  40.2292340
  33.0350620  37.4193650  39.2888790  22.5917030  34.8663240  42.0109840
  22.9333840  35.7105290  41.7163710  21.6532840  35.0146980  42.1275180
  23.3723650  44.7629260  43.9962070  23.9897650  45.4380340  43.7146520
  22.5116770  45.1717240  43.9049570  18.6655990  43.9529120  32.8768920
  18.2883970  44.4416220  32.1453820  18.9229060  44.6254400  33.5075450
  34.2901240  46.2268670  41.9116710  33.6064760  46.8967780  41.9033380
  34.8295530  46.4249320  41.1461570  35.7425380  36.0548330  40.0398440
  34.7950290  36.0887310  40.1713870  36.0675370  36.8687280  40.4247800
  26.2744920  32.3545510  38.3354430  26.5819900  31.7992400  37.6189930
  25.3445620  32.4889970  38.1527420  31.8259980  48.0712800  40.6261890
  31.8387140  47.6675090  39.7584150  31.2735200  48.8460090  40.5223320
  33.1205400  44.7929020  35.7152060  33.0101730  43.8503350  35.8401480
  33.1173650  45.1544660  36.6014820  31.2245420  42.9742640  41.9544500
  31.6414210  42.7602750  41.1197960  31.9485240  43.2315430  42.5253120
  35.1707520  41.3729860  42.0460740  34.3426150  41.4422950  41.5710870
  35.7658000  41.9584170  41.5776570  32.6922970  41.9814640  35.5749800
  32.0735390  41.6434190  34.9276100  32.6747420  41.3374400  36.2828990
  32.1349530  38.1599180  42.9915610  31.7220710  38.9852890  43.2455600
  31.4025480  37.5744220  42.7991970  24.2682320  40.9459080  37.8534280
  23.8639320  40.2336330  37.3580180  24.3545440  40.6012320  38.7422320
  24.7364020  44.6326640  40.0173490  24.4392310  44.0272110  39.3381270
  25.6863840  44.6703950  39.9062850  22.9810940  37.7202290  41.6333320
  23.5325530  37.8297630  40.8586570  23.4954450  38.0939890  42.3488550
  32.8249630  48.2058510  43.6796590  32.3480190  49.0130700  43.4869200
  32.1411420  47.5536840  43.8322800  23.8282450  44.3708330  46.6681290
  22.9310980  44.5948300  46.9154690  23.8535320  44.4943270  45.7192690
  22.6553670  41.2421650  45.2438660  22.5161440  42.1144450  45.6126060
  21.7735030  40.8994460  45.0986600  28.9783050  46.1597520  36.5503790
  29.4178960  46.9021850  36.1359180  28.9169940  46.4024090  37.4742750
  24.4534020  47.1843350  47.4523810  24.4249450  47.5886300  46.5852240
  24.2898990  46.2553710  47.2895410  20.9686950  39.8404060  35.3540930
  20.8484550  40.5666150  34.7422200  20.6587840  39.0706970  34.8768840
  36.4048840  47.9670450  48.7487980  36.8808560  48.4453340  49.4277060
  37.0256000  47.8987940  48.0233480  18.6072320  43.0119200  41.1609570
  18.6852740  43.1467970  40.2165290  19.2214000  42.3035090  41.3537690
  19.8519950  44.7119390  37.5715750  19.4448030  44.8533980  36.7169350
  20.7432960  44.4279550  37.3686960  35.8082090  45.1583300  45.9087990
  35.9345150  44.9195180  44.9905170  35.8503470  44.3267840  46.3810070
  29.6698830  48.8611300  44.4782800  30.1843500  48.7719310  45.2805230
  28.8267910  49.2071000  44.7710710  24.1241610  48.9265170  35.6838420
  23.9484090  48.0100710  35.4706220  23.2697350  49.2852460  35.9236220
  35.6606100  37.2115760  46.8737730  35.0450370  37.7195430  46.3453190
  35.3402520  36.3114090  46.8163670  18.6631840  44.0533370  43.7004030
  18.8262880  43.5838730  42.8823400  19.1284290  43.5456930  44.3652870
  23.4350610  33.1839130  38.7364600  22.9918760  33.9648670  38.4049120
  23.9935600  33.5069020  39.4435540  27.7220420  36.0507650  44.3399920
  27.2599790  36.2590670  45.1519860  27.3198530  35.2367000  44.0370590
  32.7224930  37.2716600  45.4696580  31.8718520  36.9722350  45.7905650
  32.5626720  37.5158610  44.5580400  29.8174640  38.7718350  47.5695370
  30.1428050  37.9382100  47.2297600  30.6054970  39.2946870  47.7173700
  25.4726510  33.7286460  40.5954200  25.7698840  34.6349290  40.5146220
  26.0212070  33.2405240  39.9813770  23.2264830  38.3072700  36.4645850
  23.0005750  38.0909870  37.3692470  22.4457360  38.7401160  36.1191820
  25.6664040  39.2058280  47.1306120  25.5707640  38.2653010  46.9806520
  26.5096020  39.4273350  46.7354190  29.0627460  36.9499610  37.0939780
  29.4557030  37.2671810  36.2808470  29.4244310  36.0711490  37.2084300
  20.7974580  35.6171950  45.2839900  20.4037970  36.4647160  45.4912680
  20.1092980  34.9798320  45.4748540  27.3719630  35.7006920  48.3536640
  26.6817950  35.5079120  48.9882730  28.1151930  35.9841560  48.8860940
  18.0991630  33.5400410  39.3169980  17.8104680  34.1103270  40.0294960
  18.8437390  33.0604860  39.6801210  18.2861860  37.4820530  30.5272700
  18.2036530  38.4251290  30.6687690  17.9344920  37.3395440  29.6485050
  29.6482600  39.5405360  41.1890560  28.9163720  40.0492170  41.5380660
  29.2506940  38.7235340  40.8879340  26.0859990  36.2159560  39.5943050
  26.0896050  35.7749510  38.7447590  26.9811110  36.5376890  39.7014870
  21.9362370  36.0986050  38.5537260  21.5962420  36.5761280  39.3104310
  21.1739690  35.6451170  38.1938360  30.1108510  34.9939040  40.6013500
  30.1281250  35.4447690  41.4455350  29.8624090  34.0944680  40.8146940
  33.5379260  32.4071220  46.4399880  33.8625030  31.6760880  46.9657860
  33.5735770  32.0884860  45.5380870  20.2370820  43.4284800  45.8599840
  19.8525610  42.7878470  46.4582800  20.5483010  44.1320920  46.4294570
  26.3867960  40.2761340  41.3408460  26.7538090  39.8019910  42.0869800
  26.1973020  41.1502910  41.6816800  19.2508450  35.0205030  37.4701930
  18.9655370  34.6560700  38.3080550  19.1887310  34.2885490  36.8565070
  24.1767330  39.3169980  43.6592670  23.8724400  40.1961960  43.8843030
  25.1313790  39.3769770  43.6950110  33.4637100  42.5196330  40.0485910
  34.1836220  43.0151620  39.6582020  33.2618920  41.8414220  39.4039780
  28.8455900  42.5905390  45.9354910  28.7793210  41.6701060  45.6812500
  28.2161040  42.6880830  46.6499550  22.7486520  43.1911350  37.8938330
  23.2665190  42.3879610  37.8395220  22.2970540  43.1290490  38.7355160
  20.2331060  40.1572720  44.8064030  19.8746000  40.8226570  45.3937370
  19.9385620  39.3256270  45.1776650  23.4344180  40.6156960  47.6903580
  23.1344320  40.7614140  46.7931400  24.2055420  40.0562250  47.5976970
  28.7772630  45.4125960  45.6858710  28.7917170  44.4806920  45.4677620
  28.0697730  45.4985720  46.3248480  34.9883840  42.0533300  45.0327290
  34.2632030  42.6462080  44.8356680  35.5159300  42.0456840  44.2340660
  30.5183430  43.7793470  38.5311140  30.8707250  43.1821600  37.8712510
  29.6345760  43.4537700  38.7019390  18.7439110  40.1563980  31.4298630
  19.6133960  40.4388780  31.7134550  18.2529430  40.9699850  31.3147440
  25.9073920  41.5437190  35.5506910  26.3636700  42.3542440  35.7767100
  25.5562130  41.2260330  36.3825400  28.2106530  47.0543530  42.7799210
  28.8548750  47.2602910  43.4572630  28.5735970  46.2931930  42.3270060
  21.8085700  31.8874840  36.0229430  21.6800330  31.8792740  36.9714350
  20.9847720  32.2257930  35.6720440  29.4838610  45.0575880  41.4976660
  30.1260840  44.3569040  41.6108830  30.0087960  45.8374320  41.3173550
  31.2576230  45.8570780  44.7012720  31.5932470  46.4437470  45.3790640
  30.3376570  45.7263490  44.9310510  19.1110360  49.3691360  31.9960260
  19.4708000  49.9680700  31.3417530  18.9702700  49.9151250  32.7695290
  18.8079630  33.6465960  45.4836130  18.0938150  33.8462880  46.0888740
  19.2274670  32.8705530  45.8550930  19.0952220  47.6346220  46.4702660
  19.2043340  46.6940960  46.3298050  18.4432780  47.9000970  45.8216390
  27.0864810  45.9062110  47.8700780  26.7661680  45.1871350  48.4146470
  26.4123170  46.5817180  47.9436840  20.7285620  41.9737450  33.5580690
  20.1213570  42.7136350  33.5675990  21.2034970  42.0636810  32.7318890
  30.3018410  36.1388270  43.2337580  30.6699230  35.3183480  43.5617150
  29.4416610  36.1990160  43.6493230  27.2620400  38.7927860  43.4575550
  27.7605650  39.2673680  44.1227400  27.4043350  37.8691380  43.6645580
  29.6679900  34.0981820  36.8978810  29.5447680  34.1167950  35.9488320
  30.6164460  34.1460760  37.0177210  26.7556690  49.3337120  36.1706790
  27.0098190  49.2958510  35.2486160  25.8069170  49.2070450  36.1635040
  34.4687260  35.0095820  44.3003940  33.9660860  35.7501220  44.6397750
  35.2843920  35.3979820  43.9840730  32.7609270  40.2529000  37.7465300
  31.8199410  40.2679230  37.9212990  33.0753340  39.4664960  38.1925600
  22.7390910  41.9348600  31.3069260  23.5054180  41.8229960  31.8694690
  22.8165600  41.2386570  30.6546030  21.4337670  39.3673670  31.9902150
  21.5141260  38.4201180  32.1019550  22.3257420  39.6980550  32.0962810
  34.7634850  47.4237850  39.4219560  34.8882270  48.2469020  39.8943370
  35.6300410  47.2128580  39.0743710  22.2352380  49.5169060  39.0936690
  22.9714860  48.9684520  39.3645260  22.6193300  50.3825070  38.9542680
  19.1197860  45.5842630  34.9678200  18.1937640  45.8263770  34.9583610
  19.5854290  46.4116890  34.8462950  21.2410660  48.7015130  48.2822270
  22.0423390  49.0227180  48.6957670  20.7262480  48.3410710  49.0042180
  30.0775290  44.8095000  48.2297680  29.4713450  44.8326600  47.4893430
  29.7729400  44.0778040  48.7664930  31.5075660  48.5375290  46.8407090
  32.4597410  48.4533310  46.7907330  31.3603880  49.2017000  47.5140880
  18.9608470  41.1888590  47.2258320  19.4647490  40.6095870  47.7974550
  18.2215890  41.4728820  47.7634690  26.0146410  42.5959580  46.7593840
  25.2492080  43.1644580  46.6748510  26.1962370  42.3035790  45.8662070
  33.1569760  44.3264910  47.3168860  33.8979230  44.6640670  46.8136320
  32.3942440  44.4956970  46.7638630  20.9931550  39.3318180  48.1208390
  21.0336890  39.0332050  49.0293620  21.8477050  39.7325790  47.9615910
  22.9337360  37.9110280  46.0882880  22.4033820  37.4201230  45.4606220
  23.6025430  38.3394480  45.5540810  31.8315420  42.3779740  45.8524070
  32.2456440  42.5324820  46.7014490  30.8966420  42.5034960  46.0149850
  32.3037590  39.7175900  47.8563220  32.8858360  38.9628220  47.7683700
  32.4799360  40.2483340  47.0794700  23.4209660  34.8772650  46.1680170
  23.3266530  34.2593400  45.4431040  22.8407050  35.6038940  45.9410080
  26.1871100  33.4345890  43.2007560  25.7388400  33.4570150  42.3553110
  25.5536300  33.0364910  43.7977860  26.5930650  42.3300220  43.8220000
  27.0118760  43.1732950  43.6496240  25.6739280  42.4672260  43.5926780
  28.9294550  40.0616400  45.2057840  29.0490760  39.4657540  45.9452680
  29.7888550  40.0986090  44.7859140  31.2682450  40.6153590  43.7820350
  30.7417670  41.1396210  43.1785490  31.6113790  41.2480980  44.4130080
  24.4438070  48.6353230  44.9377730  23.9059160  49.3599290  44.6186430
  24.6972030  48.1583570  44.1475070  25.6963320  36.6037750  46.4633660
  26.2863010  36.2953600  47.1511480  24.8783560  36.1317500  46.6193560
  30.5156750  36.2203560  46.6966680  29.8272270  35.5585100  46.6316670
  31.2362770  35.7741830  47.1415140  22.4651640  35.1047580  30.2147940
  22.7677540  35.1115010  29.3067090  23.2046230  34.7545440  30.7115600
  27.3000280  49.8704440  45.1964380  27.2258980  50.7739580  45.5036750
  26.3979120  49.5516340  45.1686450  21.4881770  44.4090000  31.0477740
  21.9256640  44.9519670  31.7035320  21.9729500  43.5836950  31.0574080
  18.7027570  47.1979030  38.4998000  19.0330580  46.3300090  38.2676640
  19.1318570  47.4037550  39.3302960  23.2989490  45.5288040  36.1599970
  22.9985030  45.4053010  37.0603880  23.1926980  44.6696630  35.7515700
  19.1917780  48.0649620  41.2379630  18.7548770  48.2450420  42.0703780
  19.7595460  48.8224240  41.0961350  34.8279960  47.5666620  45.5256940
  34.2281950  47.6259180  44.7820860  34.9573860  46.6271600  45.6553790
  19.0242210  40.5769850  37.5968510  18.3691050  40.3081490  36.9528210
  19.8620160  40.4674330  37.1470490  36.5297840  42.9082020  38.2102780
  36.9006670  42.1249340  37.8038750  37.1699770  43.5971120  38.0320080
  33.5131600  44.2918600  43.6233100  32.6991440  44.7215760  43.8858890
  33.9205800  44.9037010  43.0102150  35.4722380  40.2835280  35.5162800
  35.0965980  39.5163210  35.0844090  34.7425500  40.6657980  36.0037730
  20.0618140  40.9622420  42.1371850  20.4291180  40.8749820  43.0167870
  19.4928960  40.1988970  42.0378710  34.8622000  39.4306800  45.1502320
  34.6308090  39.2019550  44.2500270  35.1226550  40.3506350  45.1047210
  19.6134140  37.8731510  46.0430270  18.7190190  37.8398270  46.3823980
  20.1531690  38.0718300  46.8081520  33.3010070  34.6563230  47.9282020
  34.1780250  34.6646630  48.3116020  33.3130910  33.9194070  47.3174370
  18.2380290  37.7868780  33.5393840  17.3344370  38.0498980  33.3645500
  18.7220910  38.0579950  32.7593800  34.7473340  38.5092770  38.8170040
  35.2710820  38.0155420  38.1860210  35.3332760  38.6443130  39.5617610
  34.9263060  38.5932640  42.3389590  33.9765770  38.5596180  42.4534580
  35.1076070  39.5032750  42.1039360  20.7807500  36.8434320  31.4488220
  21.4899200  36.4217540  30.9635500  20.0647440  36.9109550  30.8171570
  20.4281660  32.8973650  30.4890870  21.1509790  33.4382590  30.8072090
  20.7006180  32.6237070  29.6132410  20.1173850  32.1479840  40.3913490
  20.7650040  31.5977220  39.9508650  20.5375690  32.4022990  41.2129300
  35.6660470  36.4027070  37.2900130  35.5559750  36.2483110  38.2282400
  36.4268060  35.8748010  37.0475540  34.0126190  32.3421200  43.7483130
  34.6498410  32.9555340  44.1142320  34.1601080  32.3781860  42.8032360
  33.5707650  49.0437200  37.1501370  34.1666720  48.7221770  36.4735790
  33.8285800  48.5709020  37.9414640  19.8705850  32.3035510  43.1338810
  19.5220670  32.7599330  43.8996990  19.5393550  31.4092640  43.2161240
  21.4770220  45.4755110  47.2992000  21.4339850  45.1048020  48.1806460
  21.6081230  46.4132680  47.4393820  25.1776250  47.0314700  42.9001720
  24.9367610  47.2989260  42.0132240  26.1178890  47.2020430  42.9552580
  27.3830670  33.4947390  46.6558230  27.3219560  34.0869220  47.4053640
  28.3231050  33.3873350  46.5108490  30.0205230  33.1517450  46.2950520
  30.6345640  33.4696740  45.6331600  30.5654790  32.6666040  46.9146380
  36.4380410  49.0509080  43.7012360  35.9438690  49.4477950  42.9839490
  35.8293700  48.4258290  44.0949640  20.5426490  31.8311710  46.4089580
  21.0909480  31.6499760  45.6455690  20.6081800  31.0405820  46.9445890
  21.3158250  48.4217360  44.4189780  20.7218570  48.2902060  45.1579820
  21.3082090  47.5855500  43.9531880  30.7613270  31.7149590  42.6219810
  29.8873110  32.0484700  42.4192740  30.6524020  31.2422770  43.4471680
  31.6685250  33.9220460  44.0061530  31.3398610  33.1072220  43.6263260
  32.6167550  33.8790270  43.8827220  34.1219860  49.6932500  40.9799100
  33.6622830  50.4448310  40.6057120  33.4932320  48.9738970  40.9213900
  20.9470480  45.7875740  43.3697820  20.2204540  45.1681030  43.3023770
  21.0079630  46.1816350  42.4995900  24.5515580  48.0020740  40.1547230
  25.0680600  47.3908100  39.6295490  25.2012960  48.5049520  40.6458240
  27.2911080  48.8929230  40.9816210  27.5788890  48.6383530  40.1049220
  27.8034300  48.3406590  41.5721780  28.5088090  32.6319430  41.5612720
  27.7259880  33.1064930  41.8409480  28.2151020  31.7274260  41.4525900
  33.0609160  33.3342530  39.6061810  33.5017250  33.2787630  38.7583410
  32.7916750  34.2500540  39.6771990  34.9247730  32.9657770  37.6170630
  34.8636130  32.0218990  37.4701650  35.7039760  33.0737860  38.1624090
  19.2300480  49.1050130  36.5794580  19.0622520  48.4720810  37.2776470
  18.3634990  49.3109530  36.2288770  19.8528500  32.9366910  34.0826440
  20.6107860  33.0495790  33.5090470  19.3905670  33.7736110  34.0369870
  26.3942310  35.0506180  37.0728750  25.5816820  34.6763070  36.7324630
  26.8983950  34.2951260  37.3749940  30.8967290  31.7148630  38.3111820
  31.4996660  32.2868840  38.7860340  30.1560280  32.2788070  38.0885720
  20.8363180  47.7983360  34.0244720  20.3110800  48.1791390  33.3206680
  20.7607760  48.4234130  34.7454430  24.4191490  33.2006100  35.6773800
  23.7894230  32.4993410  35.8443930  23.8796630  33.9610230  35.4606960
  27.3583440  49.8145330  48.3484410  28.2850750  49.5789600  48.3920370
  27.3433870  50.6417330  47.8670440  35.5928500  49.3570900  35.3458660
  35.7680690  48.6708640  34.7019580  34.8950070  49.8817950  34.9535330
  24.5447050  32.4790080  48.1126290  24.2631320  32.9823680  47.3487110
  24.9266750  31.6811830  47.7468420  23.4356150  49.7465740  32.8993970
  24.1674970  49.4625020  32.3517860  23.6949820  49.5079020  33.7893350
  31.1462510  31.8943660  48.6906760  31.0327960  32.2138270  49.5858280
  31.9632250  32.2956170  48.3944040  33.9261000  49.0415190  48.1725450
  34.7186320  48.5464420  47.9651410  34.2194150  49.7205330  48.7801060
  30.0520660  39.9136130  19.0541500  29.9714710  38.9990740  18.7833210
  29.6385080  40.4103200  18.3481210  28.1838700  41.6915150  20.9350770
  27.4080800  41.2115590  21.2249340  28.8351630  41.0120800  20.7606930
  22.2004530  42.0034960  21.8126530  21.3689410  41.7483670  22.2123040
  22.8085510  42.0745730  22.5484450  32.2046130  46.0975340  19.7149900
  31.7427660  45.3262580  20.0437070  33.0171680  46.1241410  20.2202350
  22.1805790  46.0375050  22.0084550  22.4833830  45.1472790  21.8294770
  22.9249380  46.5945270  21.7806800  20.6096480  36.9636850  15.5968920
  19.7213180  37.3052820  15.4948800  20.8937670  36.7637170  14.7049750
  18.5729490  39.5642500  21.4808620  19.1445600  38.7964700  21.4812260
  18.5731030  39.8631260  20.5715230  28.4309440  48.3833350  19.3353890
  27.8120880  48.8390850  18.7648330  29.2861220  48.5384810  18.9343590
  27.6247690  44.3672340  20.9420930  27.5555970  43.4262280  20.7810060
  28.3867550  44.4573750  21.5143500  19.8154360  34.9726860  23.2677550
  19.6357200  34.0752610  23.5480310  19.4134440  35.5198730  23.9424500
  28.6552860  37.1742720  21.1689860  29.0317680  36.3014600  21.0563530
  28.5572370  37.5101420  20.2780300  22.7857870  35.5468350  16.6307300
  22.8924620  36.4472080  16.9376060  21.8750230  35.4986320  16.3401950
  32.4376980  34.6693160  18.1018200  33.2586600  34.1789730  18.1443680
  32.4711060  35.2590820  18.8550040  20.4341030  37.4687360  21.8759890
  21.1151140  37.7325730  22.4947290  20.1189080  36.6288230  22.2097900
  24.6265600  38.5154720  20.9632480  25.1343820  39.0135690  21.6037500
  25.1578840  37.7389920  20.7871840  29.2972790  43.2672590  16.7285800
  28.6790060  43.7322040  16.1648520  29.8096040  43.9600070  17.1455310
  24.1604550  42.7948460  23.4069400  23.8273930  43.4217380  24.0490470
  24.3371230  43.3210340  22.6271070  32.6738460  36.6093540  20.8745740
  31.9694030  36.8978430  21.4548850  33.0350620  37.4193650  20.5145300
  22.5917030  34.8663240  23.2366350  22.9333840  35.7105290  22.9420220
  21.6532840  35.0146980  23.3531690  18.6655990  43.9529120  14.1025430
  18.2883970  44.4416220  13.3710330  18.9229060  44.6254400  14.7331960
  35.7425380  36.0548330  21.2654950  34.7950290  36.0887310  21.3970380
  36.0675370  36.8687280  21.6504310  26.2744920  32.3545510  19.5610940
  26.5819900  31.7992400  18.8446440  25.3445620  32.4889970  19.3783930
  31.8259980  48.0712800  21.8518400  31.8387140  47.6675090  20.9840660
  31.2735200  48.8460090  21.7479830  33.1205400  44.7929020  16.9408570
  33.0101730  43.8503350  17.0657990  33.1173650  45.1544660  17.8271330
  28.6625680  40.4194340  16.2971060  27.7354960  40.3531720  16.5259530
  28.8150500  41.3574470  16.1826300  28.6494760  36.6911340  13.2938220
  27.7098430  36.8525300  13.3790680  28.9678020  37.4097020  12.7474210
  32.6922970  41.9814640  16.8006310  32.0735390  41.6434190  16.1532610
  32.6747420  41.3374400  17.5085500  24.2682320  40.9459080  19.0790790
  23.8639320  40.2336330  18.5836690  24.3545440  40.6012320  19.9678830
  24.7364020  44.6326640  21.2430000  24.4392310  44.0272110  20.5637780
  25.6863840  44.6703950  21.1319360  22.9810940  37.7202290  22.8589830
  23.5325530  37.8297630  22.0843080  23.4954450  38.0939890  23.5745060
  30.8687670  41.2201450  13.8079060  31.3080950  40.3823880  13.6616880
  31.5816090  41.8530850  13.8943200  28.9783050  46.1597520  17.7760300
  29.4178960  46.9021850  17.3615690  28.9169940  46.4024090  18.6999260
  34.4504810  32.4744260  12.1220100  34.1377470  32.5671090  13.0219170
  35.2117280  33.0525290  12.0717530  20.9686950  39.8404060  16.5797440
  20.8484550  40.5666150  15.9678710  20.6587840  39.0706970  16.1025350
  18.6072320  43.0119200  22.3866080  18.6852740  43.1467970  21.4421800
  19.2214000  42.3035090  22.5794200  19.8519950  44.7119390  18.7972260
  19.4448030  44.8533980  17.9425860  20.7432960  44.4279550  18.5943470
  31.6453230  49.1466640  15.1323310  31.4854370  48.8569580  16.0305140
  31.4799940  48.3706770  14.5968540  24.1241610  48.9265170  16.9094930
  23.9484090  48.0100710  16.6962730  23.2697350  49.2852460  17.1492730
  31.3479360  46.6554200  13.6921310  30.6544520  46.6531490  13.0323590
  32.0902220  46.2313520  13.2615480  30.9129290  48.2816910  17.7669800
  31.3686240  47.5006290  18.0808420  31.2521810  48.9923730  18.3110980
  18.6631840  44.0533370  24.9260540  18.8262880  43.5838730  24.1079910
  19.1284290  43.5456930  25.5909380  23.4350610  33.1839130  19.9621110
  22.9918760  33.9648670  19.6305630  23.9935600  33.5069020  20.6692050
  26.5509430  32.8049830  14.8426940  25.9263610  32.8009700  15.5680250
  26.4639550  31.9380790  14.4462910  25.4726510  33.7286460  21.8210710
  25.7698840  34.6349290  21.7402730  26.0212070  33.2405240  21.2070280
  23.2264830  38.3072700  17.6902360  23.0005750  38.0909870  18.5948980
  22.4457360  38.7401160  17.3448330  30.4562590  38.3136070  16.2893010
  29.8571480  39.0371870  16.1056630  31.0042200  38.2512850  15.5069460
  29.0627460  36.9499610  18.3196290  29.4557030  37.2671810  17.5064980
  29.4244310  36.0711490  18.4340810  20.7974580  35.6171950  26.5096410
  20.4037970  36.4647160  26.7169190  20.1092980  34.9798320  26.7005050
  18.0991630  33.5400410  20.5426490  17.8104680  34.1103270  21.2551470
  18.8437390  33.0604860  20.9057720  18.2861860  37.4820530  11.7529210
  18.2036530  38.4251290  11.8944200  17.9344920  37.3395440  10.8741560
  26.0859990  36.2159560  20.8199560  26.0896050  35.7749510  19.9704100
  26.9811110  36.5376890  20.9271380  21.9362370  36.0986050  19.7793770
  21.5962420  36.5761280  20.5360820  21.1739690  35.6451170  19.4194870
  26.1480140  37.2171640  13.8106320  26.2692960  37.1758120  14.7592140
  25.7628650  38.0795790  13.6553050  30.1108510  34.9939040  21.8270010
  30.1281250  35.4447690  22.6711860  29.8624090  34.0944680  22.0403450
  25.1601640  39.5272780  13.2089620  24.5918540  39.0791030  12.5825530
  25.8690640  39.8865560  12.6754770  20.2370820  43.4284800  27.0856350
  19.8525610  42.7878470  27.6839310  20.5483010  44.1320920  27.6551080
  26.3867960  40.2761340  22.5664970  26.7538090  39.8019910  23.3126310
  26.1973020  41.1502910  22.9073310  19.2508450  35.0205030  18.6958440
  18.9655370  34.6560700  19.5337060  19.1887310  34.2885490  18.0821580
  24.1767330  39.3169980  24.8849180  23.8724400  40.1961960  25.1099540
  25.1313790  39.3769770  24.9206620  22.7049120  43.5230970  15.4816030
  21.9311380  42.9828590  15.3214750  23.4343750  43.0037580  15.1433790
  28.9247040  33.9134290  15.4171810  28.1111650  33.4147460  15.3417120
  28.7308990  34.7532540  15.0008160  31.6395430  38.2853940  13.7133970
  32.5275050  38.5971170  13.5385310  31.6100520  37.4126190  13.3214550
  22.7486520  43.1911350  19.1194840  23.2665190  42.3879610  19.0651730
  22.2970540  43.1290490  19.9611670  27.6356020  44.4577630  14.3922140
  27.9771720  45.2019860  13.8965460  26.8068730  44.7708750  14.7546970
  20.2331060  40.1572720  26.0320540  19.8746000  40.8226570  26.6193880
  19.9385620  39.3256270  26.4033160  33.9109700  39.5965780  13.1813830
  33.8273420  40.0280000  12.3310270  34.6303890  40.0564130  13.6140650
  34.9396950  46.4508040  15.9095960  34.2973110  45.7963660  16.1839680
  34.5527610  46.8563130  15.1336630  30.5183430  43.7793470  19.7567650
  30.8707250  43.1821600  19.0969020  29.6345760  43.4537700  19.9275900
  26.6046710  44.5391160  17.1638060  27.2917840  45.0860370  17.5445650
  25.8179130  45.0831890  17.1987670  18.7439110  40.1563980  12.6555140
  19.6133960  40.4388780  12.9391060  18.2529430  40.9699850  12.5403950
  25.9073920  41.5437190  16.7763420  26.3636700  42.3542440  17.0023610
  25.5562130  41.2260330  17.6081910  21.8085700  31.8874840  17.2485940
  21.6800330  31.8792740  18.1970860  20.9847720  32.2257930  16.8976950
  33.3294330  45.3424500  12.4472310  33.1031910  44.6254940  13.0396950
  32.9390530  45.0936940  11.6094060  19.1110360  49.3691360  13.2216770
  19.4708000  49.9680700  12.5674040  18.9702700  49.9151250  13.9951800
  18.8079630  33.6465960  26.7092640  18.0938150  33.8462880  27.3145250
  19.2274670  32.8705530  27.0807440  32.9110580  43.2596440  14.1086470
  32.6232280  43.7209130  14.8964350  33.7062750  42.7994210  14.3770690
  19.0952220  47.6346220  27.6959170  19.2043340  46.6940960  27.5554560
  18.4432780  47.9000970  27.0472900  25.1278980  46.7522560  14.0390440
  25.1189080  47.4852250  13.4234950  24.2077340  46.5054140  14.1317400
  20.7285620  41.9737450  14.7837200  20.1213570  42.7136350  14.7932500
  21.2034970  42.0636810  13.9575400  33.6680440  35.0945210  15.2681650
  33.0393600  35.1990880  14.5539880  33.1732360  35.3141990  16.0575530
  28.1138580  46.8150800  12.7015630  28.2150560  46.6114790  11.7717610
  27.2140320  46.5609080  12.9063410  25.6364470  37.3731160  16.6839530
  24.9280620  37.8417500  17.1253140  25.9208950  36.7153170  17.3184720
  29.6679900  34.0981820  18.1235320  29.5447680  34.1167950  17.1744830
  30.6164460  34.1460760  18.2433720  26.7556690  49.3337120  17.3963300
  27.0098190  49.2958510  16.4742670  25.8069170  49.2070450  17.3891550
  23.8399490  35.6816240  14.0590240  24.6890020  36.1186390  13.9930430
  23.4730760  35.9936500  14.8862300  32.7609270  40.2529000  18.9721810
  31.8199410  40.2679230  19.1469500  33.0753340  39.4664960  19.4182110
  22.7390910  41.9348600  12.5325770  23.5054180  41.8229960  13.0951200
  22.8165600  41.2386570  11.8802540  21.4337670  39.3673670  13.2158660
  21.5141260  38.4201180  13.3276060  22.3257420  39.6980550  13.3219320
  34.7634850  47.4237850  20.6476070  34.8882270  48.2469020  21.1199880
  35.6300410  47.2128580  20.3000220  22.2352380  49.5169060  20.3193200
  22.9714860  48.9684520  20.5901770  22.6193300  50.3825070  20.1799190
  19.1197860  45.5842630  16.1934710  18.1937640  45.8263770  16.1840120
  19.5854290  46.4116890  16.0719460  21.2410660  48.7015130  29.5078780
  22.0423390  49.0227180  29.9214180  20.7262480  48.3410710  30.2298690
  25.3454690  48.6899370  12.1418770  26.1383300  48.9788200  11.6900560
  24.8259040  48.2591540  11.4631250  34.3984860  47.9169500  13.5655510
  34.1126370  47.5034640  12.7509690  34.2004410  48.8457210  13.4456030
  18.9608470  41.1888590  28.4514830  19.4647490  40.6095870  29.0231060
  18.2215890  41.4728820  28.9891200  25.8632090  43.9102780  12.0061120
  25.7582730  43.2955130  12.7322500  25.6956310  43.3868670  11.2224130
  29.1034820  42.9722810  12.6103110  28.5544920  43.4192110  13.2545850
  29.7254080  42.4672060  13.1340780  20.9931550  39.3318180  29.3464900
  21.0336890  39.0332050  30.2550130  21.8477050  39.7325790  29.1872420
  24.7709940  41.9313730  14.5068410  25.1926360  41.7653600  15.3499800
  24.8960780  41.1213960  14.0123550  27.2837580  40.9551340  11.7545510
  27.8043240  40.2400360  11.3886660  27.9305980  41.5937210  12.0546020
  23.6668840  38.0046960  11.4526570  23.4657900  37.1414320  11.8139910
  23.4960890  37.9180320  10.5148170  31.1457150  32.8155190  13.9813450
  31.4259440  31.9723090  14.3372870  30.3722880  33.0478300  14.4952200
  22.4651640  35.1047580  11.4404450  22.7677540  35.1115010  10.5323600
  23.2046230  34.7545440  11.9372110  25.6836570  34.0482200  12.4260650
  25.3358570  33.3706190  11.8463100  25.8849340  33.5871710  13.2404040
  27.8485610  49.0362950  14.0447250  28.7436400  49.3747920  14.0666010
  27.8803240  48.3142360  13.4171530  21.4881770  44.4090000  12.2734250
  21.9256640  44.9519670  12.9291830  21.9729500  43.5836950  12.2830590
  18.7027570  47.1979030  19.7254510  19.0330580  46.3300090  19.4933150
  19.1318570  47.4037550  20.5559470  23.2989490  45.5288040  17.3856480
  22.9985030  45.4053010  18.2860390  23.1926980  44.6696630  16.9772210
  19.1917780  48.0649620  22.4636140  18.7548770  48.2450420  23.2960290
  19.7595460  48.8224240  22.3217860  36.0681410  45.3084440  12.0883160
  35.2374370  45.3761090  12.5590390  36.2453240  46.1988560  11.7850020
  35.5237870  42.0531920  14.5917360  36.2856780  42.6228570  14.6977050
  35.5392240  41.4859120  15.3625670  19.0242210  40.5769850  18.8225020
  18.3691050  40.3081490  18.1784720  19.8620160  40.4674330  18.3727000
  36.5297840  42.9082020  19.4359290  36.9006670  42.1249340  19.0295260
  37.1699770  43.5971120  19.2576590  35.5757040  42.3466290  11.7489880
  35.8505880  43.2545170  11.6209100  35.3867780  42.2828820  12.6851870
  31.9732650  35.3711140  13.0443510  32.3917530  35.1842120  12.2040170
  31.6668710  34.5190190  13.3546440  35.4722380  40.2835280  16.7419310
  35.0965980  39.5163210  16.3100600  34.7425500  40.6657980  17.2294240
  20.0618140  40.9622420  23.3628360  20.4291180  40.8749820  24.2424380
  19.4928960  40.1988970  23.2635220  19.6134140  37.8731510  27.2686780
  18.7190190  37.8398270  27.6080490  20.1531690  38.0718300  28.0338030
  18.2380290  37.7868780  14.7650350  17.3344370  38.0498980  14.5902010
  18.7220910  38.0579950  13.9850310  34.7473340  38.5092770  20.0426550
  35.2710820  38.0155420  19.4116720  35.3332760  38.6443130  20.7874120
  20.7807500  36.8434320  12.6744730  21.4899200  36.4217540  12.1892010
  20.0647440  36.9109550  12.0428080  20.4281660  32.8973650  11.7147380
  21.1509790  33.4382590  12.0328600  20.7006180  32.6237070  10.8388920
  34.2373310  37.7666120  15.9818960  34.7332430  37.5336990  16.7667840
  34.0389380  36.9277960  15.5656600  20.1173850  32.1479840  21.6170000
  20.7650040  31.5977220  21.1765160  20.5375690  32.4022990  22.4385810
  35.6660470  36.4027070  18.5156640  35.5559750  36.2483110  19.4538910
  36.4268060  35.8748010  18.2732050  36.5550740  34.2334990  11.7562780
  37.4800050  34.1016170  11.5481070  36.5326530  34.3127810  12.7099230
  36.6289230  35.0045650  14.3819490  35.8340730  34.9390770  14.9112400
  36.8332510  35.9396290  14.3704840  33.5707650  49.0437200  18.3757880
  34.1666720  48.7221770  17.6992300  33.8285800  48.5709020  19.1671150
  19.8705850  32.3035510  24.3595320  19.5220670  32.7599330  25.1253500
  19.5393550  31.4092640  24.4417750  20.5426490  31.8311710  27.6346090
  21.0909480  31.6499760  26.8712200  20.6081800  31.0405820  28.1702400
  21.3158250  48.4217360  25.6446290  20.7218570  48.2902060  26.3836330
  21.3082090  47.5855500  25.1788390  34.1219860  49.6932500  22.2055610
  33.6622830  50.4448310  21.8313630  33.4932320  48.9738970  22.1470410
  20.9470480  45.7875740  24.5954330  20.2204540  45.1681030  24.5280280
  21.0079630  46.1816350  23.7252410  24.5515580  48.0020740  21.3803740
  25.0680600  47.3908100  20.8552000  25.2012960  48.5049520  21.8714750
  28.5088090  32.6319430  22.7869230  27.7259880  33.1064930  23.0665990
  28.2151020  31.7274260  22.6782410  33.0609160  33.3342530  20.8318320
  33.5017250  33.2787630  19.9839920  32.7916750  34.2500540  20.9028500
  34.9247730  32.9657770  18.8427140  34.8636130  32.0218990  18.6958160
  35.7039760  33.0737860  19.3880600  19.2300480  49.1050130  17.8051090
  19.0622520  48.4720810  18.5032980  18.3634990  49.3109530  17.4545280
  19.8528500  32.9366910  15.3082950  20.6107860  33.0495790  14.7346980
  19.3905670  33.7736110  15.2626380  26.3942310  35.0506180  18.2985260
  25.5816820  34.6763070  17.9581140  26.8983950  34.2951260  18.6006450
  30.8967290  31.7148630  19.5368330  31.4996660  32.2868840  20.0116850
  30.1560280  32.2788070  19.3142230  34.0401890  32.1170190  14.8108610
  34.2352520  33.0153640  15.0776040  33.2531760  31.8857270  15.3041560
  20.8363180  47.7983360  15.2501230  20.3110800  48.1791390  14.5463190
  20.7607760  48.4234130  15.9710940  22.2253650  33.4630960  13.8484920
  22.7546410  32.6760760  13.7192870  22.8581970  34.1422150  14.0820450
  24.4191490  33.2006100  16.9030310  23.7894230  32.4993410  17.0700440
  23.8796630  33.9610230  16.6863470  35.5928500  49.3570900  16.5715170
  35.7680690  48.6708640  15.9276090  34.8950070  49.8817950  16.1791840
  23.4356150  49.7465740  14.1250480  24.1674970  49.4625020  13.5774370
  23.6949820  49.5079020  15.0149860  22.5970940  45.8630470  14.1296810
  21.9679820  46.3315570  14.6782640  22.7118770  45.0179690  14.5643000
  28.1838700  41.6915150   2.1607280  27.4080800  41.2115590   2.4505850
  28.8351630  41.0120800   1.9863440  22.2004530  42.0034960   3.0383040
  21.3689410  41.7483670   3.4379550  22.8085510  42.0745730   3.7740960
  22.1805790  46.0375050   3.2341060  22.4833830  45.1472790   3.0551280
  22.9249380  46.5945270   3.0063310  18.5729490  39.5642500   2.7065130
  19.1445600  38.7964700   2.7068770  18.5731030  39.8631260   1.7971740
  27.6247690  44.3672340   2.1677440  27.5555970  43.4262280   2.0066570
  28.3867550  44.4573750   2.7400010  19.8154360  34.9726860   4.4934060
  19.6357200  34.0752610   4.7736820  19.4134440  35.5198730   5.1681010
  28.6552860  37.1742720   2.3946370  29.0317680  36.3014600   2.2820040
  28.5572370  37.5101420   1.5036810  20.4341030  37.4687360   3.1016400
  21.1151140  37.7325730   3.7203800  20.1189080  36.6288230   3.4354410
  24.6265600  38.5154720   2.1888990  25.1343820  39.0135690   2.8294010
  25.1578840  37.7389920   2.0128350  36.7276530  36.6859910   5.8918340
  36.0228700  37.0741620   5.3733450  36.9934450  37.3810200   6.4939270
  22.9101700  33.1553280   6.4552410  22.9120140  33.6725670   5.6498310
  22.0806010  32.6783460   6.4322340  24.1604550  42.7948460   4.6325910
  23.8273930  43.4217380   5.2746980  24.3371230  43.3210340   3.8527580
  32.6738460  36.6093540   2.1002250  31.9694030  36.8978430   2.6805360
  33.0350620  37.4193650   1.7401810  22.5917030  34.8663240   4.4622860
  22.9333840  35.7105290   4.1676730  21.6532840  35.0146980   4.5788200
  23.3723650  44.7629260   6.4475090  23.9897650  45.4380340   6.1659540
  22.5116770  45.1717240   6.3562590  34.2901240  46.2268670   4.3629730
  33.6064760  46.8967780   4.3546400  34.8295530  46.4249320   3.5974590
  35.7425380  36.0548330   2.4911460  34.7950290  36.0887310   2.6226890
  36.0675370  36.8687280   2.8760820  31.8259980  48.0712800   3.0774910
  31.8387140  47.6675090   2.2097170  31.2735200  48.8460090   2.9736340
  31.2245420  42.9742640   4.4057520  31.6414210  42.7602750   3.5710980
  31.9485240  43.2315430   4.9766140  35.1707520  41.3729860   4.4973760
  34.3426150  41.4422950   4.0223890  35.7658000  41.9584170   4.0289590
  32.1349530  38.1599180   5.4428630  31.7220710  38.9852890   5.6968620
  31.4025480  37.5744220   5.2504990  24.7364020  44.6326640   2.4686510
  24.4392310  44.0272110   1.7894290  25.6863840  44.6703950   2.3575870
  22.9810940  37.7202290   4.0846340  23.5325530  37.8297630   3.3099590
  23.4954450  38.0939890   4.8001570  32.8249630  48.2058510   6.1309610
  32.3480190  49.0130700   5.9382220  32.1411420  47.5536840   6.2835820
  23.8282450  44.3708330   9.1194310  22.9310980  44.5948300   9.3667710
  23.8535320  44.4943270   8.1705710  22.6553670  41.2421650   7.6951680
  22.5161440  42.1144450   8.0639080  21.7735030  40.8994460   7.5499620
  24.4534020  47.1843350   9.9036830  24.4249450  47.5886300   9.0365260
  24.2898990  46.2553710   9.7408430  36.4048840  47.9670450  11.2001000
  36.8808560  48.4453340  11.8790080  37.0256000  47.8987940  10.4746500
  18.6072320  43.0119200   3.6122590  18.6852740  43.1467970   2.6678310
  19.2214000  42.3035090   3.8050710  35.8082090  45.1583300   8.3601010
  35.9345150  44.9195180   7.4418190  35.8503470  44.3267840   8.8323090
  29.6698830  48.8611300   6.9295820  30.1843500  48.7719310   7.7318250
  28.8267910  49.2071000   7.2223730  35.6606100  37.2115760   9.3250750
  35.0450370  37.7195430   8.7966210  35.3402520  36.3114090   9.2676690
  18.6631840  44.0533370   6.1517050  18.8262880  43.5838730   5.3336420
  19.1284290  43.5456930   6.8165890  27.7220420  36.0507650   6.7912940
  27.2599790  36.2590670   7.6032880  27.3198530  35.2367000   6.4883610
  32.7224930  37.2716600   7.9209600  31.8718520  36.9722350   8.2418670
  32.5626720  37.5158610   7.0093420  29.8174640  38.7718350  10.0208390
  30.1428050  37.9382100   9.6810620  30.6054970  39.2946870  10.1686720
  25.4726510  33.7286460   3.0467220  25.7698840  34.6349290   2.9659240
  26.0212070  33.2405240   2.4326790  25.6664040  39.2058280   9.5819140
  25.5707640  38.2653010   9.4319540  26.5096020  39.4273350   9.1867210
  20.7974580  35.6171950   7.7352920  20.4037970  36.4647160   7.9425700
  20.1092980  34.9798320   7.9261560  27.3719630  35.7006920  10.8049660
  26.6817950  35.5079120  11.4395750  28.1151930  35.9841560  11.3373960
  18.0991630  33.5400410   1.7683000  17.8104680  34.1103270   2.4807980
  18.8437390  33.0604860   2.1314230  29.6482600  39.5405360   3.6403580
  28.9163720  40.0492170   3.9893680  29.2506940  38.7235340   3.3392360
  30.1108510  34.9939040   3.0526520  30.1281250  35.4447690   3.8968370
  29.8624090  34.0944680   3.2659960  33.5379260  32.4071220   8.8912900
  33.8625030  31.6760880   9.4170880  33.5735770  32.0884860   7.9893890
  20.2370820  43.4284800   8.3112860  19.8525610  42.7878470   8.9095820
  20.5483010  44.1320920   8.8807590  26.3867960  40.2761340   3.7921480
  26.7538090  39.8019910   4.5382820  26.1973020  41.1502910   4.1329820
  24.1767330  39.3169980   6.1105690  23.8724400  40.1961960   6.3356050
  25.1313790  39.3769770   6.1463130  33.4637100  42.5196330   2.4998930
  34.1836220  43.0151620   2.1095040  33.2618920  41.8414220   1.8552800
  28.8455900  42.5905390   8.3867930  28.7793210  41.6701060   8.1325520
  28.2161040  42.6880830   9.1012570  20.2331060  40.1572720   7.2577050
  19.8746000  40.8226570   7.8450390  19.9385620  39.3256270   7.6289670
  23.4344180  40.6156960  10.1416600  23.1344320  40.7614140   9.2444420
  24.2055420  40.0562250  10.0489990  28.7772630  45.4125960   8.1371730
  28.7917170  44.4806920   7.9190640  28.0697730  45.4985720   8.7761500
  34.9883840  42.0533300   7.4840310  34.2632030  42.6462080   7.2869700
  35.5159300  42.0456840   6.6853680  28.2106530  47.0543530   5.2312230
  28.8548750  47.2602910   5.9085650  28.5735970  46.2931930   4.7783080
  29.4838610  45.0575880   3.9489680  30.1260840  44.3569040   4.0621850
  30.0087960  45.8374320   3.7686570  31.2576230  45.8570780   7.1525740
  31.5932470  46.4437470   7.8303660  30.3376570  45.7263490   7.3823530
  18.8079630  33.6465960   7.9349150  18.0938150  33.8462880   8.5401760
  19.2274670  32.8705530   8.3063950  19.0952220  47.6346220   8.9215680
  19.2043340  46.6940960   8.7811070  18.4432780  47.9000970   8.2729410
  27.0864810  45.9062110  10.3213800  26.7661680  45.1871350  10.8659490
  26.4123170  46.5817180  10.3949860  30.3018410  36.1388270   5.6850600
  30.6699230  35.3183480   6.0130170  29.4416610  36.1990160   6.1006250
  27.2620400  38.7927860   5.9088570  27.7605650  39.2673680   6.5740420
  27.4043350  37.8691380   6.1158600  34.4687260  35.0095820   6.7516960
  33.9660860  35.7501220   7.0910770  35.2843920  35.3979820   6.4353750
  34.7634850  47.4237850   1.8732580  34.8882270  48.2469020   2.3456390
  35.6300410  47.2128580   1.5256730  21.2410660  48.7015130  10.7335290
  22.0423390  49.0227180  11.1470690  20.7262480  48.3410710  11.4555200
  30.0775290  44.8095000  10.6810700  29.4713450  44.8326600   9.9406450
  29.7729400  44.0778040  11.2177950  31.5075660  48.5375290   9.2920110
  32.4597410  48.4533310   9.2420350  31.3603880  49.2017000   9.9653900
  18.9608470  41.1888590   9.6771340  19.4647490  40.6095870  10.2487570
  18.2215890  41.4728820  10.2147710  26.0146410  42.5959580   9.2106860
  25.2492080  43.1644580   9.1261530  26.1962370  42.3035790   8.3175090
  33.1569760  44.3264910   9.7681880  33.8979230  44.6640670   9.2649340
  32.3942440  44.4956970   9.2151650  20.9931550  39.3318180  10.5721410
  21.0336890  39.0332050  11.4806640  21.8477050  39.7325790  10.4128930
  22.9337360  37.9110280   8.5395900  22.4033820  37.4201230   7.9119240
  23.6025430  38.3394480   8.0053830  31.8315420  42.3779740   8.3037090
  32.2456440  42.5324820   9.1527510  30.8966420  42.5034960   8.4662870
  32.3037590  39.7175900  10.3076240  32.8858360  38.9628220  10.2196720
  32.4799360  40.2483340   9.5307720  23.4209660  34.8772650   8.6193190
  23.3266530  34.2593400   7.8944060  22.8407050  35.6038940   8.3923100
  26.1871100  33.4345890   5.6520580  25.7388400  33.4570150   4.8066130
  25.5536300  33.0364910   6.2490880  26.5930650  42.3300220   6.2733020
  27.0118760  43.1732950   6.1009260  25.6739280  42.4672260   6.0439800
  28.9294550  40.0616400   7.6570860  29.0490760  39.4657540   8.3965700
  29.7888550  40.0986090   7.2372160  31.2682450  40.6153590   6.2333370
  30.7417670  41.1396210   5.6298510  31.6113790  41.2480980   6.8643100
  24.4438070  48.6353230   7.3890750  23.9059160  49.3599290   7.0699450
  24.6972030  48.1583570   6.5988090  25.6963320  36.6037750   8.9146680
  26.2863010  36.2953600   9.6024500  24.8783560  36.1317500   9.0706580
  30.5156750  36.2203560   9.1479700  29.8272270  35.5585100   9.0829690
  31.2362770  35.7741830   9.5928160  27.3000280  49.8704440   7.6477400
  27.2258980  50.7739580   7.9549770  26.3979120  49.5516340   7.6199470
  19.1917780  48.0649620   3.6892650  18.7548770  48.2450420   4.5216800
  19.7595460  48.8224240   3.5474370  34.8279960  47.5666620   7.9769960
  34.2281950  47.6259180   7.2333880  34.9573860  46.6271600   8.1066810
  33.5131600  44.2918600   6.0746120  32.6991440  44.7215760   6.3371910
  33.9205800  44.9037010   5.4615170  20.0618140  40.9622420   4.5884870
  20.4291180  40.8749820   5.4680890  19.4928960  40.1988970   4.4891730
  34.8622000  39.4306800   7.6015340  34.6308090  39.2019550   6.7013290
  35.1226550  40.3506350   7.5560230  19.6134140  37.8731510   8.4943290
  18.7190190  37.8398270   8.8337000  20.1531690  38.0718300   9.2594540
  33.3010070  34.6563230  10.3795040  34.1780250  34.6646630  10.7629040
  33.3130910  33.9194070   9.7687390  34.9263060  38.5932640   4.7902610
  33.9765770  38.5596180   4.9047600  35.1076070  39.5032750   4.5552380
  20.1173850  32.1479840   2.8426510  20.7650040  31.5977220   2.4021670
  20.5375690  32.4022990   3.6642320  34.0126190  32.3421200   6.1996150
  34.6498410  32.9555340   6.5655340  34.1601080  32.3781860   5.2545380
  19.8705850  32.3035510   5.5851830  19.5220670  32.7599330   6.3510010
  19.5393550  31.4092640   5.6674260  21.4770220  45.4755110   9.7505020
  21.4339850  45.1048020  10.6319480  21.6081230  46.4132680   9.8906840
  25.1776250  47.0314700   5.3514740  24.9367610  47.2989260   4.4645260
  26.1178890  47.2020430   5.4065600  27.3830670  33.4947390   9.1071250
  27.3219560  34.0869220   9.8566660  28.3231050  33.3873350   8.9621510
  30.0205230  33.1517450   8.7463540  30.6345640  33.4696740   8.0844620
  30.5654790  32.6666040   9.3659400  36.4380410  49.0509080   6.1525380
  35.9438690  49.4477950   5.4352510  35.8293700  48.4258290   6.5462660
  20.5426490  31.8311710   8.8602600  21.0909480  31.6499760   8.0968710
  20.6081800  31.0405820   9.3958910  21.3158250  48.4217360   6.8702800
  20.7218570  48.2902060   7.6092840  21.3082090  47.5855500   6.4044900
  30.7613270  31.7149590   5.0732830  29.8873110  32.0484700   4.8705760
  30.6524020  31.2422770   5.8984700  31.6685250  33.9220460   6.4574550
  31.3398610  33.1072220   6.0776280  32.6167550  33.8790270   6.3340240
  34.1219860  49.6932500   3.4312120  33.6622830  50.4448310   3.0570140
  33.4932320  48.9738970   3.3726920  20.9470480  45.7875740   5.8210840
  20.2204540  45.1681030   5.7536790  21.0079630  46.1816350   4.9508920
  24.5515580  48.0020740   2.6060250  25.0680600  47.3908100   2.0808510
  25.2012960  48.5049520   3.0971260  27.2911080  48.8929230   3.4329230
  27.5788890  48.6383530   2.5562240  27.8034300  48.3406590   4.0234800
  28.5088090  32.6319430   4.0125740  27.7259880  33.1064930   4.2922500
  28.2151020  31.7274260   3.9038920  27.3583440  49.8145330  10.7997430
  28.2850750  49.5789600  10.8433390  27.3433870  50.6417330  10.3183460
  24.5447050  32.4790080  10.5639310  24.2631320  32.9823680   9.8000130
  24.9266750  31.6811830  10.1981440  31.1462510  31.8943660  11.1419780
  31.0327960  32.2138270  12.0371300  31.9632250  32.2956170  10.8457060
  33.9261000  49.0415190  10.6238470  34.7186320  48.5464420  10.4164430
  34.2194150  49.7205330  11.2314080  30.0520660  21.1392640  56.6028480
  29.9714710  20.2247250  56.3320190  29.6385080  21.6359710  55.8968190
  32.2046130  27.3231850  57.2636880  31.7427660  26.5519090  57.5924050
  33.0171680  27.3497920  57.7689330  20.6096480  18.1893360  53.1455900
  19.7213180  18.5309330  53.0435780  20.8937670  17.9893680  52.2536730
  28.4309440  29.6089860  56.8840870  27.8120880  30.0647360  56.3135310
  29.2861220  29.7641320  56.4830570  22.7857870  16.7724860  54.1794280
  22.8924620  17.6728590  54.4863040  21.8750230  16.7242830  53.8888930
  32.4376980  15.8949670  55.6505180  33.2586600  15.4046240  55.6930660
  32.4711060  16.4847330  56.4037020  29.2972790  24.4929100  54.2772780
  28.6790060  24.9578550  53.7135500  29.8096040  25.1856580  54.6942290
  18.6655990  25.1785630  51.6512410  18.2883970  25.6672730  50.9197310
  18.9229060  25.8510910  52.2818940  26.2744920  13.5802020  57.1097920
  26.5819900  13.0248910  56.3933420  25.3445620  13.7146480  56.9270910
  33.1205400  26.0185530  54.4895550  33.0101730  25.0759860  54.6144970
  33.1173650  26.3801170  55.3758310  28.6625680  21.6450850  53.8458040
  27.7354960  21.5788230  54.0746510  28.8150500  22.5830980  53.7313280
  28.6494760  17.9167850  50.8425200  27.7098430  18.0781810  50.9277660
  28.9678020  18.6353530  50.2961190  32.6922970  23.2071150  54.3493290
  32.0735390  22.8690700  53.7019590  32.6747420  22.5630910  55.0572480
  24.2682320  22.1715590  56.6277770  23.8639320  21.4592840  56.1323670
  24.3545440  21.8268830  57.5165810  30.8687670  22.4457960  51.3566040
  31.3080950  21.6080390  51.2103860  31.5816090  23.0787360  51.4430180
  28.9783050  27.3854030  55.3247280  29.4178960  28.1278360  54.9102670
  28.9169940  27.6280600  56.2486240  34.4504810  13.7000770  49.6707080
  34.1377470  13.7927600  50.5706150  35.2117280  14.2781800  49.6204510
  20.9686950  21.0660570  54.1284420  20.8484550  21.7922660  53.5165690
  20.6587840  20.2963480  53.6512330  19.8519950  25.9375900  56.3459240
  19.4448030  26.0790490  55.4912840  20.7432960  25.6536060  56.1430450
  31.6453230  30.3723150  52.6810290  31.4854370  30.0826090  53.5792120
  31.4799940  29.5963280  52.1455520  24.1241610  30.1521680  54.4581910
  23.9484090  29.2357220  54.2449710  23.2697350  30.5108970  54.6979710
  31.3479360  27.8810710  51.2408290  30.6544520  27.8788000  50.5810570
  32.0902220  27.4570030  50.8102460  30.9129290  29.5073420  55.3156780
  31.3686240  28.7262800  55.6295400  31.2521810  30.2180240  55.8597960
  23.4350610  14.4095640  57.5108090  22.9918760  15.1905180  57.1792610
  23.9935600  14.7325530  58.2179030  26.5509430  14.0306340  52.3913920
  25.9263610  14.0266210  53.1167230  26.4639550  13.1637300  51.9949890
  23.2264830  19.5329210  55.2389340  23.0005750  19.3166380  56.1435960
  22.4457360  19.9657670  54.8935310  30.4562590  19.5392580  53.8379990
  29.8571480  20.2628380  53.6543610  31.0042200  19.4769360  53.0556440
  29.0627460  18.1756120  55.8683270  29.4557030  18.4928320  55.0551960
  29.4244310  17.2968000  55.9827790  18.2861860  18.7077040  49.3016190
  18.2036530  19.6507800  49.4431180  17.9344920  18.5651950  48.4228540
  26.0859990  17.4416070  58.3686540  26.0896050  17.0006020  57.5191080
  26.9811110  17.7633400  58.4758360  21.9362370  17.3242560  57.3280750
  21.5962420  17.8017790  58.0847800  21.1739690  16.8707680  56.9681850
  26.1480140  18.4428150  51.3593300  26.2692960  18.4014630  52.3079120
  25.7628650  19.3052300  51.2040030  25.1601640  20.7529290  50.7576600
  24.5918540  20.3047540  50.1312510  25.8690640  21.1122070  50.2241750
  19.2508450  16.2461540  56.2445420  18.9655370  15.8817210  57.0824040
  19.1887310  15.5142000  55.6308560  22.7049120  24.7487480  53.0303010
  21.9311380  24.2085100  52.8701730  23.4343750  24.2294090  52.6920770
  28.9247040  15.1390800  52.9658790  28.1111650  14.6403970  52.8904100
  28.7308990  15.9789050  52.5495140  31.6395430  19.5110450  51.2620950
  32.5275050  19.8227680  51.0872290  31.6100520  18.6382700  50.8701530
  22.7486520  24.4167860  56.6681820  23.2665190  23.6136120  56.6138710
  22.2970540  24.3547000  57.5098650  27.6356020  25.6834140  51.9409120
  27.9771720  26.4276370  51.4452440  26.8068730  25.9965260  52.3033950
  33.9109700  20.8222290  50.7300810  33.8273420  21.2536510  49.8797250
  34.6303890  21.2820640  51.1627630  34.9396950  27.6764550  53.4582940
  34.2973110  27.0220170  53.7326660  34.5527610  28.0819640  52.6823610
  30.5183430  25.0049980  57.3054630  30.8707250  24.4078110  56.6456000
  29.6345760  24.6794210  57.4762880  26.6046710  25.7647670  54.7125040
  27.2917840  26.3116880  55.0932630  25.8179130  26.3088400  54.7474650
  18.7439110  21.3820490  50.2042120  19.6133960  21.6645290  50.4878040
  18.2529430  22.1956360  50.0890930  25.9073920  22.7693700  54.3250400
  26.3636700  23.5798950  54.5510590  25.5562130  22.4516840  55.1568890
  21.8085700  13.1131350  54.7972920  21.6800330  13.1049250  55.7457840
  20.9847720  13.4514440  54.4463930  33.3294330  26.5681010  49.9959290
  33.1031910  25.8511450  50.5883930  32.9390530  26.3193450  49.1581040
  19.1110360  30.5947870  50.7703750  19.4708000  31.1937210  50.1161020
  18.9702700  31.1407760  51.5438780  32.9110580  24.4852950  51.6573450
  32.6232280  24.9465640  52.4451330  33.7062750  24.0250720  51.9257670
  25.1278980  27.9779070  51.5877420  25.1189080  28.7108760  50.9721930
  24.2077340  27.7310650  51.6804380  20.7285620  23.1993960  52.3324180
  20.1213570  23.9392860  52.3419480  21.2034970  23.2893320  51.5062380
  33.6680440  16.3201720  52.8168630  33.0393600  16.4247390  52.1026860
  33.1732360  16.5398500  53.6062510  28.1138580  28.0407310  50.2502610
  28.2150560  27.8371300  49.3204590  27.2140320  27.7865590  50.4550390
  25.6364470  18.5987670  54.2326510  24.9280620  19.0674010  54.6740120
  25.9208950  17.9409680  54.8671700  29.6679900  15.3238330  55.6722300
  29.5447680  15.3424460  54.7231810  30.6164460  15.3717270  55.7920700
  26.7556690  30.5593630  54.9450280  27.0098190  30.5215020  54.0229650
  25.8069170  30.4326960  54.9378530  23.8399490  16.9072750  51.6077220
  24.6890020  17.3442900  51.5417410  23.4730760  17.2193010  52.4349280
  32.7609270  21.4785510  56.5208790  31.8199410  21.4935740  56.6956480
  33.0753340  20.6921470  56.9669090  22.7390910  23.1605110  50.0812750
  23.5054180  23.0486470  50.6438180  22.8165600  22.4643080  49.4289520
  21.4337670  20.5930180  50.7645640  21.5141260  19.6457690  50.8763040
  22.3257420  20.9237060  50.8706300  22.2352380  30.7425570  57.8680180
  22.9714860  30.1941030  58.1388750  22.6193300  31.6081580  57.7286170
  19.1197860  26.8099140  53.7421690  18.1937640  27.0520280  53.7327100
  19.5854290  27.6373400  53.6206440  25.3454690  29.9155880  49.6905750
  26.1383300  30.2044710  49.2387540  24.8259040  29.4848050  49.0118230
  34.3984860  29.1426010  51.1142490  34.1126370  28.7291150  50.2996670
  34.2004410  30.0713720  50.9943010  25.8632090  25.1359290  49.5548100
  25.7582730  24.5211640  50.2809480  25.6956310  24.6125180  48.7711110
  29.1034820  24.1979320  50.1590090  28.5544920  24.6448620  50.8032830
  29.7254080  23.6928570  50.6827760  24.7709940  23.1570240  52.0555390
  25.1926360  22.9910110  52.8986780  24.8960780  22.3470470  51.5610530
  27.2837580  22.1807850  49.3032490  27.8043240  21.4656870  48.9373640
  27.9305980  22.8193720  49.6033000  23.6668840  19.2303470  49.0013550
  23.4657900  18.3670830  49.3626890  23.4960890  19.1436830  48.0635150
  31.1457150  14.0411700  51.5300430  31.4259440  13.1979600  51.8859850
  30.3722880  14.2734810  52.0439180  22.4651640  16.3304090  48.9891430
  22.7677540  16.3371520  48.0810580  23.2046230  15.9801950  49.4859090
  25.6836570  15.2738710  49.9747630  25.3358570  14.5962700  49.3950080
  25.8849340  14.8128220  50.7891020  27.8485610  30.2619460  51.5934230
  28.7436400  30.6004430  51.6152990  27.8803240  29.5398870  50.9658510
  21.4881770  25.6346510  49.8221230  21.9256640  26.1776180  50.4778810
  21.9729500  24.8093460  49.8317570  18.7027570  28.4235540  57.2741490
  19.0330580  27.5556600  57.0420130  19.1318570  28.6294060  58.1046450
  23.2989490  26.7544550  54.9343460  22.9985030  26.6309520  55.8347370
  23.1926980  25.8953140  54.5259190  36.0681410  26.5340950  49.6370140
  35.2374370  26.6017600  50.1077370  36.2453240  27.4245070  49.3337000
  35.5237870  23.2788430  52.1404340  36.2856780  23.8485080  52.2464030
  35.5392240  22.7115630  52.9112650  19.0242210  21.8026360  56.3712000
  18.3691050  21.5338000  55.7271700  19.8620160  21.6930840  55.9213980
  36.5297840  24.1338530  56.9846270  36.9006670  23.3505850  56.5782240
  37.1699770  24.8227630  56.8063570  35.5757040  23.5722800  49.2976860
  35.8505880  24.4801680  49.1696080  35.3867780  23.5085330  50.2338850
  31.9732650  16.5967650  50.5930490  32.3917530  16.4098630  49.7527150
  31.6668710  15.7446700  50.9033420  35.4722380  21.5091790  54.2906290
  35.0965980  20.7419720  53.8587580  34.7425500  21.8914490  54.7781220
  18.2380290  19.0125290  52.3137330  17.3344370  19.2755490  52.1388990
  18.7220910  19.2836460  51.5337290  34.7473340  19.7349280  57.5913530
  35.2710820  19.2411930  56.9603700  35.3332760  19.8699640  58.3361100
  20.7807500  18.0690830  50.2231710  21.4899200  17.6474050  49.7378990
  20.0647440  18.1366060  49.5915060  20.4281660  14.1230160  49.2634360
  21.1509790  14.6639100  49.5815580  20.7006180  13.8493580  48.3875900
  34.2373310  18.9922630  53.5305940  34.7332430  18.7593500  54.3154820
  34.0389380  18.1534470  53.1143580  35.6660470  17.6283580  56.0643620
  35.5559750  17.4739620  57.0025890  36.4268060  17.1004520  55.8219030
  36.5550740  15.4591500  49.3049760  37.4800050  15.3272680  49.0968050
  36.5326530  15.5384320  50.2586210  36.6289230  16.2302160  51.9306470
  35.8340730  16.1647280  52.4599380  36.8332510  17.1652800  51.9191820
  33.5707650  30.2693710  55.9244860  34.1666720  29.9478280  55.2479280
  33.8285800  29.7965530  56.7158130  33.0609160  14.5599040  58.3805300
  33.5017250  14.5044140  57.5326900  32.7916750  15.4757050  58.4515480
  34.9247730  14.1914280  56.3914120  34.8636130  13.2475500  56.2445140
  35.7039760  14.2994370  56.9367580  19.2300480  30.3306640  55.3538070
  19.0622520  29.6977320  56.0519960  18.3634990  30.5366040  55.0032260
  19.8528500  14.1623420  52.8569930  20.6107860  14.2752300  52.2833960
  19.3905670  14.9992620  52.8113360  26.3942310  16.2762690  55.8472240
  25.5816820  15.9019580  55.5068120  26.8983950  15.5207770  56.1493430
  30.8967290  12.9405140  57.0855310  31.4996660  13.5125350  57.5603830
  30.1560280  13.5044580  56.8629210  34.0401890  13.3426700  52.3595590
  34.2352520  14.2410150  52.6263020  33.2531760  13.1113780  52.8528540
  20.8363180  29.0239870  52.7988210  20.3110800  29.4047900  52.0950170
  20.7607760  29.6490640  53.5197920  22.2253650  14.6887470  51.3971900
  22.7546410  13.9017270  51.2679850  22.8581970  15.3678660  51.6307430
  24.4191490  14.4262610  54.4517290  23.7894230  13.7249920  54.6187420
  23.8796630  15.1866740  54.2350450  35.5928500  30.5827410  54.1202150
  35.7680690  29.8965150  53.4763070  34.8950070  31.1074460  53.7278820
  23.4356150  30.9722250  51.6737460  24.1674970  30.6881530  51.1261350
  23.6949820  30.7335530  52.5636840  22.5970940  27.0886980  51.6783790
  21.9679820  27.5572080  52.2269620  22.7118770  26.2436200  52.1129980
  28.1838700  22.9171660  39.7094260  27.4080800  22.4372100  39.9992830
  28.8351630  22.2377310  39.5350420  22.2004530  23.2291470  40.5870020
  21.3689410  22.9740180  40.9866530  22.8085510  23.3002240  41.3227940
  22.1805790  27.2631560  40.7828040  22.4833830  26.3729300  40.6038260
  22.9249380  27.8201780  40.5550290  20.6096480  18.1893360  34.3712410
  19.7213180  18.5309330  34.2692290  20.8937670  17.9893680  33.4793240
  18.5729490  20.7899010  40.2552110  19.1445600  20.0221210  40.2555750
  18.5731030  21.0887770  39.3458720  28.4309440  29.6089860  38.1097380
  27.8120880  30.0647360  37.5391820  29.2861220  29.7641320  37.7087080
  27.6247690  25.5928850  39.7164420  27.5555970  24.6518790  39.5553550
  28.3867550  25.6830260  40.2886990  19.8154360  16.1983370  42.0421040
  19.6357200  15.3009120  42.3223800  19.4134440  16.7455240  42.7167990
  28.6552860  18.3999230  39.9433350  29.0317680  17.5271110  39.8307020
  28.5572370  18.7357930  39.0523790  22.7857870  16.7724860  35.4050790
  22.8924620  17.6728590  35.7119550  21.8750230  16.7242830  35.1145440
  32.4376980  15.8949670  36.8761690  33.2586600  15.4046240  36.9187170
  32.4711060  16.4847330  37.6293530  20.4341030  18.6943870  40.6503380
  21.1151140  18.9582240  41.2690780  20.1189080  17.8544740  40.9841390
  24.6265600  19.7411230  39.7375970  25.1343820  20.2392200  40.3780990
  25.1578840  18.9646430  39.5615330  36.7276530  17.9116420  43.4405320
  36.0228700  18.2998130  42.9220430  36.9934450  18.6066710  44.0426250
  22.9101700  14.3809790  44.0039390  22.9120140  14.8982180  43.1985290
  22.0806010  13.9039970  43.9809320  24.1604550  24.0204970  42.1812890
  23.8273930  24.6473890  42.8233960  24.3371230  24.5466850  41.4014560
  32.6738460  17.8350050  39.6489230  31.9694030  18.1234940  40.2292340
  33.0350620  18.6450160  39.2888790  22.5917030  16.0919750  42.0109840
  22.9333840  16.9361800  41.7163710  21.6532840  16.2403490  42.1275180
  23.3723650  25.9885770  43.9962070  23.9897650  26.6636850  43.7146520
  22.5116770  26.3973750  43.9049570  18.6655990  25.1785630  32.8768920
  18.2883970  25.6672730  32.1453820  18.9229060  25.8510910  33.5075450
  34.2901240  27.4525180  41.9116710  33.6064760  28.1224290  41.9033380
  34.8295530  27.6505830  41.1461570  35.7425380  17.2804840  40.0398440
  34.7950290  17.3143820  40.1713870  36.0675370  18.0943790  40.4247800
  26.2744920  13.5802020  38.3354430  26.5819900  13.0248910  37.6189930
  25.3445620  13.7146480  38.1527420  31.8259980  29.2969310  40.6261890
  31.8387140  28.8931600  39.7584150  31.2735200  30.0716600  40.5223320
  31.2245420  24.1999150  41.9544500  31.6414210  23.9859260  41.1197960
  31.9485240  24.4571940  42.5253120  28.6494760  17.9167850  32.0681710
  27.7098430  18.0781810  32.1534170  28.9678020  18.6353530  31.5217700
  35.1707520  22.5986370  42.0460740  34.3426150  22.6679460  41.5710870
  35.7658000  23.1840680  41.5776570  32.1349530  19.3855690  42.9915610
  31.7220710  20.2109400  43.2455600  31.4025480  18.8000730  42.7991970
  24.2682320  22.1715590  37.8534280  23.8639320  21.4592840  37.3580180
  24.3545440  21.8268830  38.7422320  24.7364020  25.8583150  40.0173490
  24.4392310  25.2528620  39.3381270  25.6863840  25.8960460  39.9062850
  22.9810940  18.9458800  41.6333320  23.5325530  19.0554140  40.8586570
  23.4954450  19.3196400  42.3488550  32.8249630  29.4315020  43.6796590
  32.3480190  30.2387210  43.4869200  32.1411420  28.7793350  43.8322800
  23.8282450  25.5964840  46.6681290  22.9310980  25.8204810  46.9154690
  23.8535320  25.7199780  45.7192690  22.6553670  22.4678160  45.2438660
  22.5161440  23.3400960  45.6126060  21.7735030  22.1250970  45.0986600
  24.4534020  28.4099860  47.4523810  24.4249450  28.8142810  46.5852240
  24.2898990  27.4810220  47.2895410  34.4504810  13.7000770  30.8963590
  34.1377470  13.7927600  31.7962660  35.2117280  14.2781800  30.8461020
  20.9686950  21.0660570  35.3540930  20.8484550  21.7922660  34.7422200
  20.6587840  20.2963480  34.8768840  36.4048840  29.1926960  48.7487980
  36.8808560  29.6709850  49.4277060  37.0256000  29.1244450  48.0233480
  18.6072320  24.2375710  41.1609570  18.6852740  24.3724480  40.2165290
  19.2214000  23.5291600  41.3537690  19.8519950  25.9375900  37.5715750
  19.4448030  26.0790490  36.7169350  20.7432960  25.6536060  37.3686960
  35.8082090  26.3839810  45.9087990  35.9345150  26.1451690  44.9905170
  35.8503470  25.5524350  46.3810070  29.6698830  30.0867810  44.4782800
  30.1843500  29.9975820  45.2805230  28.8267910  30.4327510  44.7710710
  24.1241610  30.1521680  35.6838420  23.9484090  29.2357220  35.4706220
  23.2697350  30.5108970  35.9236220  30.9129290  29.5073420  36.5413290
  31.3686240  28.7262800  36.8551910  31.2521810  30.2180240  37.0854470
  35.6606100  18.4372270  46.8737730  35.0450370  18.9451940  46.3453190
  35.3402520  17.5370600  46.8163670  18.6631840  25.2789880  43.7004030
  18.8262880  24.8095240  42.8823400  19.1284290  24.7713440  44.3652870
  23.4350610  14.4095640  38.7364600  22.9918760  15.1905180  38.4049120
  23.9935600  14.7325530  39.4435540  27.7220420  17.2764160  44.3399920
  27.2599790  17.4847180  45.1519860  27.3198530  16.4623510  44.0370590
  32.7224930  18.4973110  45.4696580  31.8718520  18.1978860  45.7905650
  32.5626720  18.7415120  44.5580400  29.8174640  19.9974860  47.5695370
  30.1428050  19.1638610  47.2297600  30.6054970  20.5203380  47.7173700
  26.5509430  14.0306340  33.6170430  25.9263610  14.0266210  34.3423740
  26.4639550  13.1637300  33.2206400  25.4726510  14.9542970  40.5954200
  25.7698840  15.8605800  40.5146220  26.0212070  14.4661750  39.9813770
  23.2264830  19.5329210  36.4645850  23.0005750  19.3166380  37.3692470
  22.4457360  19.9657670  36.1191820  30.4562590  19.5392580  35.0636500
  29.8571480  20.2628380  34.8800120  31.0042200  19.4769360  34.2812950
  25.6664040  20.4314790  47.1306120  25.5707640  19.4909520  46.9806520
  26.5096020  20.6529860  46.7354190  29.0627460  18.1756120  37.0939780
  29.4557030  18.4928320  36.2808470  29.4244310  17.2968000  37.2084300
  20.7974580  16.8428460  45.2839900  20.4037970  17.6903670  45.4912680
  20.1092980  16.2054830  45.4748540  27.3719630  16.9263430  48.3536640
  26.6817950  16.7335630  48.9882730  28.1151930  17.2098070  48.8860940
  18.0991630  14.7656920  39.3169980  17.8104680  15.3359780  40.0294960
  18.8437390  14.2861370  39.6801210  18.2861860  18.7077040  30.5272700
  18.2036530  19.6507800  30.6687690  17.9344920  18.5651950  29.6485050
  29.6482600  20.7661870  41.1890560  28.9163720  21.2748680  41.5380660
  29.2506940  19.9491850  40.8879340  26.0859990  17.4416070  39.5943050
  26.0896050  17.0006020  38.7447590  26.9811110  17.7633400  39.7014870
  21.9362370  17.3242560  38.5537260  21.5962420  17.8017790  39.3104310
  21.1739690  16.8707680  38.1938360  26.1480140  18.4428150  32.5849810
  26.2692960  18.4014630  33.5335630  25.7628650  19.3052300  32.4296540
  30.1108510  16.2195550  40.6013500  30.1281250  16.6704200  41.4455350
  29.8624090  15.3201190  40.8146940  25.1601640  20.7529290  31.9833110
  24.5918540  20.3047540  31.3569020  25.8690640  21.1122070  31.4498260
  33.5379260  13.6327730  46.4399880  33.8625030  12.9017390  46.9657860
  33.5735770  13.3141370  45.5380870  20.2370820  24.6541310  45.8599840
  19.8525610  24.0134980  46.4582800  20.5483010  25.3577430  46.4294570
  26.3867960  21.5017850  41.3408460  26.7538090  21.0276420  42.0869800
  26.1973020  22.3759420  41.6816800  19.2508450  16.2461540  37.4701930
  18.9655370  15.8817210  38.3080550  19.1887310  15.5142000  36.8565070
  24.1767330  20.5426490  43.6592670  23.8724400  21.4218470  43.8843030
  25.1313790  20.6026280  43.6950110  22.7049120  24.7487480  34.2559520
  21.9311380  24.2085100  34.0958240  23.4343750  24.2294090  33.9177280
  33.4637100  23.7452840  40.0485910  34.1836220  24.2408130  39.6582020
  33.2618920  23.0670730  39.4039780  28.9247040  15.1390800  34.1915300
  28.1111650  14.6403970  34.1160610  28.7308990  15.9789050  33.7751650
  28.8455900  23.8161900  45.9354910  28.7793210  22.8957570  45.6812500
  28.2161040  23.9137340  46.6499550  31.6395430  19.5110450  32.4877460
  32.5275050  19.8227680  32.3128800  31.6100520  18.6382700  32.0958040
  22.7486520  24.4167860  37.8938330  23.2665190  23.6136120  37.8395220
  22.2970540  24.3547000  38.7355160  20.2331060  21.3829230  44.8064030
  19.8746000  22.0483080  45.3937370  19.9385620  20.5512780  45.1776650
  23.4344180  21.8413470  47.6903580  23.1344320  21.9870650  46.7931400
  24.2055420  21.2818760  47.5976970  28.7772630  26.6382470  45.6858710
  28.7917170  25.7063430  45.4677620  28.0697730  26.7242230  46.3248480
  34.9883840  23.2789810  45.0327290  34.2632030  23.8718590  44.8356680
  35.5159300  23.2713350  44.2340660  18.7439110  21.3820490  31.4298630
  19.6133960  21.6645290  31.7134550  18.2529430  22.1956360  31.3147440
  25.9073920  22.7693700  35.5506910  26.3636700  23.5798950  35.7767100
  25.5562130  22.4516840  36.3825400  28.2106530  28.2800040  42.7799210
  28.8548750  28.4859420  43.4572630  28.5735970  27.5188440  42.3270060
  21.8085700  13.1131350  36.0229430  21.6800330  13.1049250  36.9714350
  20.9847720  13.4514440  35.6720440  29.4838610  26.2832390  41.4976660
  30.1260840  25.5825550  41.6108830  30.0087960  27.0630830  41.3173550
  31.2576230  27.0827290  44.7012720  31.5932470  27.6693980  45.3790640
  30.3376570  26.9520000  44.9310510  19.1110360  30.5947870  31.9960260
  19.4708000  31.1937210  31.3417530  18.9702700  31.1407760  32.7695290
  18.8079630  14.8722470  45.4836130  18.0938150  15.0719390  46.0888740
  19.2274670  14.0962040  45.8550930  19.0952220  28.8602730  46.4702660
  19.2043340  27.9197470  46.3298050  18.4432780  29.1257480  45.8216390
  27.0864810  27.1318620  47.8700780  26.7661680  26.4127860  48.4146470
  26.4123170  27.8073690  47.9436840  25.1278980  27.9779070  32.8133930
  25.1189080  28.7108760  32.1978440  24.2077340  27.7310650  32.9060890
  20.7285620  23.1993960  33.5580690  20.1213570  23.9392860  33.5675990
  21.2034970  23.2893320  32.7318890  30.3018410  17.3644780  43.2337580
  30.6699230  16.5439990  43.5617150  29.4416610  17.4246670  43.6493230
  33.6680440  16.3201720  34.0425140  33.0393600  16.4247390  33.3283370
  33.1732360  16.5398500  34.8319020  25.6364470  18.5987670  35.4583020
  24.9280620  19.0674010  35.8996630  25.9208950  17.9409680  36.0928210
  27.2620400  20.0184370  43.4575550  27.7605650  20.4930190  44.1227400
  27.4043350  19.0947890  43.6645580  29.6679900  15.3238330  36.8978810
  29.5447680  15.3424460  35.9488320  30.6164460  15.3717270  37.0177210
  26.7556690  30.5593630  36.1706790  27.0098190  30.5215020  35.2486160
  25.8069170  30.4326960  36.1635040  23.8399490  16.9072750  32.8333730
  24.6890020  17.3442900  32.7673920  23.4730760  17.2193010  33.6605790
  34.4687260  16.2352330  44.3003940  33.9660860  16.9757730  44.6397750
  35.2843920  16.6236330  43.9840730  32.7609270  21.4785510  37.7465300
  31.8199410  21.4935740  37.9212990  33.0753340  20.6921470  38.1925600
  22.7390910  23.1605110  31.3069260  23.5054180  23.0486470  31.8694690
  22.8165600  22.4643080  30.6546030  21.4337670  20.5930180  31.9902150
  21.5141260  19.6457690  32.1019550  22.3257420  20.9237060  32.0962810
  34.7634850  28.6494360  39.4219560  34.8882270  29.4725530  39.8943370
  35.6300410  28.4385090  39.0743710  22.2352380  30.7425570  39.0936690
  22.9714860  30.1941030  39.3645260  22.6193300  31.6081580  38.9542680
  19.1197860  26.8099140  34.9678200  18.1937640  27.0520280  34.9583610
  19.5854290  27.6373400  34.8462950  21.2410660  29.9271640  48.2822270
  22.0423390  30.2483690  48.6957670  20.7262480  29.5667220  49.0042180
  30.0775290  26.0351510  48.2297680  29.4713450  26.0583110  47.4893430
  29.7729400  25.3034550  48.7664930  31.5075660  29.7631800  46.8407090
  32.4597410  29.6789820  46.7907330  31.3603880  30.4273510  47.5140880
  18.9608470  22.4145100  47.2258320  19.4647490  21.8352380  47.7974550
  18.2215890  22.6985330  47.7634690  26.0146410  23.8216090  46.7593840
  25.2492080  24.3901090  46.6748510  26.1962370  23.5292300  45.8662070
  33.1569760  25.5521420  47.3168860  33.8979230  25.8897180  46.8136320
  32.3942440  25.7213480  46.7638630  20.9931550  20.5574690  48.1208390
  21.0336890  20.2588560  49.0293620  21.8477050  20.9582300  47.9615910
  24.7709940  23.1570240  33.2811900  25.1926360  22.9910110  34.1243290
  24.8960780  22.3470470  32.7867040  22.9337360  19.1366790  46.0882880
  22.4033820  18.6457740  45.4606220  23.6025430  19.5650990  45.5540810
  31.8315420  23.6036250  45.8524070  32.2456440  23.7581330  46.7014490
  30.8966420  23.7291470  46.0149850  32.3037590  20.9432410  47.8563220
  32.8858360  20.1884730  47.7683700  32.4799360  21.4739850  47.0794700
  23.4209660  16.1029160  46.1680170  23.3266530  15.4849910  45.4431040
  22.8407050  16.8295450  45.9410080  26.1871100  14.6602400  43.2007560
  25.7388400  14.6826660  42.3553110  25.5536300  14.2621420  43.7977860
  26.5930650  23.5556730  43.8220000  27.0118760  24.3989460  43.6496240
  25.6739280  23.6928770  43.5926780  28.9294550  21.2872910  45.2057840
  29.0490760  20.6914050  45.9452680  29.7888550  21.3242600  44.7859140
  31.2682450  21.8410100  43.7820350  30.7417670  22.3652720  43.1785490
  31.6113790  22.4737490  44.4130080  23.6668840  19.2303470  30.2270060
  23.4657900  18.3670830  30.5883400  23.4960890  19.1436830  29.2891660
  24.4438070  29.8609740  44.9377730  23.9059160  30.5855800  44.6186430
  24.6972030  29.3840080  44.1475070  25.6963320  17.8294260  46.4633660
  26.2863010  17.5210110  47.1511480  24.8783560  17.3574010  46.6193560
  30.5156750  17.4460070  46.6966680  29.8272270  16.7841610  46.6316670
  31.2362770  16.9998340  47.1415140  31.1457150  14.0411700  32.7556940
  31.4259440  13.1979600  33.1116360  30.3722880  14.2734810  33.2695690
  22.4651640  16.3304090  30.2147940  22.7677540  16.3371520  29.3067090
  23.2046230  15.9801950  30.7115600  27.3000280  31.0960950  45.1964380
  27.2258980  31.9996090  45.5036750  26.3979120  30.7772850  45.1686450
  25.6836570  15.2738710  31.2004140  25.3358570  14.5962700  30.6206590
  25.8849340  14.8128220  32.0147530  21.4881770  25.6346510  31.0477740
  21.9256640  26.1776180  31.7035320  21.9729500  24.8093460  31.0574080
  18.7027570  28.4235540  38.4998000  19.0330580  27.5556600  38.2676640
  19.1318570  28.6294060  39.3302960  23.2989490  26.7544550  36.1599970
  22.9985030  26.6309520  37.0603880  23.1926980  25.8953140  35.7515700
  19.1917780  29.2906130  41.2379630  18.7548770  29.4706930  42.0703780
  19.7595460  30.0480750  41.0961350  34.8279960  28.7923130  45.5256940
  34.2281950  28.8515690  44.7820860  34.9573860  27.8528110  45.6553790
  19.0242210  21.8026360  37.5968510  18.3691050  21.5338000  36.9528210
  19.8620160  21.6930840  37.1470490  36.5297840  24.1338530  38.2102780
  36.9006670  23.3505850  37.8038750  37.1699770  24.8227630  38.0320080
  33.5131600  25.5175110  43.6233100  32.6991440  25.9472270  43.8858890
  33.9205800  26.1293520  43.0102150  31.9732650  16.5967650  31.8187000
  32.3917530  16.4098630  30.9783660  31.6668710  15.7446700  32.1289930
  35.4722380  21.5091790  35.5162800  35.0965980  20.7419720  35.0844090
  34.7425500  21.8914490  36.0037730  20.0618140  22.1878930  42.1371850
  20.4291180  22.1006330  43.0167870  19.4928960  21.4245480  42.0378710
  34.8622000  20.6563310  45.1502320  34.6308090  20.4276060  44.2500270
  35.1226550  21.5762860  45.1047210  19.6134140  19.0988020  46.0430270
  18.7190190  19.0654780  46.3823980  20.1531690  19.2974810  46.8081520
  33.3010070  15.8819740  47.9282020  34.1780250  15.8903140  48.3116020
  33.3130910  15.1450580  47.3174370  18.2380290  19.0125290  33.5393840
  17.3344370  19.2755490  33.3645500  18.7220910  19.2836460  32.7593800
  34.7473340  19.7349280  38.8170040  35.2710820  19.2411930  38.1860210
  35.3332760  19.8699640  39.5617610  34.9263060  19.8189150  42.3389590
  33.9765770  19.7852690  42.4534580  35.1076070  20.7289260  42.1039360
  20.7807500  18.0690830  31.4488220  21.4899200  17.6474050  30.9635500
  20.0647440  18.1366060  30.8171570  20.4281660  14.1230160  30.4890870
  21.1509790  14.6639100  30.8072090  20.7006180  13.8493580  29.6132410
  34.2373310  18.9922630  34.7562450  34.7332430  18.7593500  35.5411330
  34.0389380  18.1534470  34.3400090  20.1173850  13.3736350  40.3913490
  20.7650040  12.8233730  39.9508650  20.5375690  13.6279500  41.2129300
  35.6660470  17.6283580  37.2900130  35.5559750  17.4739620  38.2282400
  36.4268060  17.1004520  37.0475540  34.0126190  13.5677710  43.7483130
  34.6498410  14.1811850  44.1142320  34.1601080  13.6038370  42.8032360
  36.5550740  15.4591500  30.5306270  37.4800050  15.3272680  30.3224560
  36.5326530  15.5384320  31.4842720  36.6289230  16.2302160  33.1562980
  35.8340730  16.1647280  33.6855890  36.8332510  17.1652800  33.1448330
  33.5707650  30.2693710  37.1501370  34.1666720  29.9478280  36.4735790
  33.8285800  29.7965530  37.9414640  19.8705850  13.5292020  43.1338810
  19.5220670  13.9855840  43.8996990  19.5393550  12.6349150  43.2161240
  21.4770220  26.7011620  47.2992000  21.4339850  26.3304530  48.1806460
  21.6081230  27.6389190  47.4393820  25.1776250  28.2571210  42.9001720
  24.9367610  28.5245770  42.0132240  26.1178890  28.4276940  42.9552580
  27.3830670  14.7203900  46.6558230  27.3219560  15.3125730  47.4053640
  28.3231050  14.6129860  46.5108490  30.0205230  14.3773960  46.2950520
  30.6345640  14.6953250  45.6331600  30.5654790  13.8922550  46.9146380
  36.4380410  30.2765590  43.7012360  35.9438690  30.6734460  42.9839490
  35.8293700  29.6514800  44.0949640  20.5426490  13.0568220  46.4089580
  21.0909480  12.8756270  45.6455690  20.6081800  12.2662330  46.9445890
  21.3158250  29.6473870  44.4189780  20.7218570  29.5158570  45.1579820
  21.3082090  28.8112010  43.9531880  30.7613270  12.9406100  42.6219810
  29.8873110  13.2741210  42.4192740  30.6524020  12.4679280  43.4471680
  31.6685250  15.1476970  44.0061530  31.3398610  14.3328730  43.6263260
  32.6167550  15.1046780  43.8827220  34.1219860  30.9189010  40.9799100
  33.6622830  31.6704820  40.6057120  33.4932320  30.1995480  40.9213900
  20.9470480  27.0132250  43.3697820  20.2204540  26.3937540  43.3023770
  21.0079630  27.4072860  42.4995900  24.5515580  29.2277250  40.1547230
  25.0680600  28.6164610  39.6295490  25.2012960  29.7306030  40.6458240
  27.2911080  30.1185740  40.9816210  27.5788890  29.8640040  40.1049220
  27.8034300  29.5663100  41.5721780  28.5088090  13.8575940  41.5612720
  27.7259880  14.3321440  41.8409480  28.2151020  12.9530770  41.4525900
  33.0609160  14.5599040  39.6061810  33.5017250  14.5044140  38.7583410
  32.7916750  15.4757050  39.6771990  34.9247730  14.1914280  37.6170630
  34.8636130  13.2475500  37.4701650  35.7039760  14.2994370  38.1624090
  19.2300480  30.3306640  36.5794580  19.0622520  29.6977320  37.2776470
  18.3634990  30.5366040  36.2288770  19.8528500  14.1623420  34.0826440
  20.6107860  14.2752300  33.5090470  19.3905670  14.9992620  34.0369870
  26.3942310  16.2762690  37.0728750  25.5816820  15.9019580  36.7324630
  26.8983950  15.5207770  37.3749940  30.8967290  12.9405140  38.3111820
  31.4996660  13.5125350  38.7860340  30.1560280  13.5044580  38.0885720
  34.0401890  13.3426700  33.5852100  34.2352520  14.2410150  33.8519530
  33.2531760  13.1113780  34.0785050  20.8363180  29.0239870  34.0244720
  20.3110800  29.4047900  33.3206680  20.7607760  29.6490640  34.7454430
  22.2253650  14.6887470  32.6228410  22.7546410  13.9017270  32.4936360
  22.8581970  15.3678660  32.8563940  24.4191490  14.4262610  35.6773800
  23.7894230  13.7249920  35.8443930  23.8796630  15.1866740  35.4606960
  27.3583440  31.0401840  48.3484410  28.2850750  30.8046110  48.3920370
  27.3433870  31.8673840  47.8670440  24.5447050  13.7046590  48.1126290
  24.2631320  14.2080190  47.3487110  24.9266750  12.9068340  47.7468420
  23.4356150  30.9722250  32.8993970  24.1674970  30.6881530  32.3517860
  23.6949820  30.7335530  33.7893350  22.5970940  27.0886980  32.9040300
  21.9679820  27.5572080  33.4526130  22.7118770  26.2436200  33.3386490
  31.1462510  13.1200170  48.6906760  31.0327960  13.4394780  49.5858280
  31.9632250  13.5212680  48.3944040  33.9261000  30.2671700  48.1725450
  34.7186320  29.7720930  47.9651410  34.2194150  30.9461840  48.7801060
  30.0520660  21.1392640  19.0541500  29.9714710  20.2247250  18.7833210
  29.6385080  21.6359710  18.3481210  28.1838700  22.9171660  20.9350770
  27.4080800  22.4372100  21.2249340  28.8351630  22.2377310  20.7606930
  22.2004530  23.2291470  21.8126530  21.3689410  22.9740180  22.2123040
  22.8085510  23.3002240  22.5484450  32.2046130  27.3231850  19.7149900
  31.7427660  26.5519090  20.0437070  33.0171680  27.3497920  20.2202350
  22.1805790  27.2631560  22.0084550  22.4833830  26.3729300  21.8294770
  22.9249380  27.8201780  21.7806800  20.6096480  18.1893360  15.5968920
  19.7213180  18.5309330  15.4948800  20.8937670  17.9893680  14.7049750
  18.5729490  20.7899010  21.4808620  19.1445600  20.0221210  21.4812260
  18.5731030  21.0887770  20.5715230  28.4309440  29.6089860  19.3353890
  27.8120880  30.0647360  18.7648330  29.2861220  29.7641320  18.9343590
  27.6247690  25.5928850  20.9420930  27.5555970  24.6518790  20.7810060
  28.3867550  25.6830260  21.5143500  19.8154360  16.1983370  23.2677550
  19.6357200  15.3009120  23.5480310  19.4134440  16.7455240  23.9424500
  28.6552860  18.3999230  21.1689860  29.0317680  17.5271110  21.0563530
  28.5572370  18.7357930  20.2780300  22.7857870  16.7724860  16.6307300
  22.8924620  17.6728590  16.9376060  21.8750230  16.7242830  16.3401950
  32.4376980  15.8949670  18.1018200  33.2586600  15.4046240  18.1443680
  32.4711060  16.4847330  18.8550040  20.4341030  18.6943870  21.8759890
  21.1151140  18.9582240  22.4947290  20.1189080  17.8544740  22.2097900
  24.6265600  19.7411230  20.9632480  25.1343820  20.2392200  21.6037500
  25.1578840  18.9646430  20.7871840  36.7276530  17.9116420  24.6661830
  36.0228700  18.2998130  24.1476940  36.9934450  18.6066710  25.2682760
  22.9101700  14.3809790  25.2295900  22.9120140  14.8982180  24.4241800
  22.0806010  13.9039970  25.2065830  29.2972790  24.4929100  16.7285800
  28.6790060  24.9578550  16.1648520  29.8096040  25.1856580  17.1455310
  24.1604550  24.0204970  23.4069400  23.8273930  24.6473890  24.0490470
  24.3371230  24.5466850  22.6271070  32.6738460  17.8350050  20.8745740
  31.9694030  18.1234940  21.4548850  33.0350620  18.6450160  20.5145300
  22.5917030  16.0919750  23.2366350  22.9333840  16.9361800  22.9420220
  21.6532840  16.2403490  23.3531690  23.3723650  25.9885770  25.2218580
  23.9897650  26.6636850  24.9403030  22.5116770  26.3973750  25.1306080
  18.6655990  25.1785630  14.1025430  18.2883970  25.6672730  13.3710330
  18.9229060  25.8510910  14.7331960  34.2901240  27.4525180  23.1373220
  33.6064760  28.1224290  23.1289890  34.8295530  27.6505830  22.3718080
  35.7425380  17.2804840  21.2654950  34.7950290  17.3143820  21.3970380
  36.0675370  18.0943790  21.6504310  26.2744920  13.5802020  19.5610940
  26.5819900  13.0248910  18.8446440  25.3445620  13.7146480  19.3783930
  31.8259980  29.2969310  21.8518400  31.8387140  28.8931600  20.9840660
  31.2735200  30.0716600  21.7479830  33.1205400  26.0185530  16.9408570
  33.0101730  25.0759860  17.0657990  33.1173650  26.3801170  17.8271330
  31.2245420  24.1999150  23.1801010  31.6414210  23.9859260  22.3454470
  31.9485240  24.4571940  23.7509630  28.6625680  21.6450850  16.2971060
  27.7354960  21.5788230  16.5259530  28.8150500  22.5830980  16.1826300
  28.6494760  17.9167850  13.2938220  27.7098430  18.0781810  13.3790680
  28.9678020  18.6353530  12.7474210  35.1707520  22.5986370  23.2717250
  34.3426150  22.6679460  22.7967380  35.7658000  23.1840680  22.8033080
  32.6922970  23.2071150  16.8006310  32.0735390  22.8690700  16.1532610
  32.6747420  22.5630910  17.5085500  32.1349530  19.3855690  24.2172120
  31.7220710  20.2109400  24.4712110  31.4025480  18.8000730  24.0248480
  24.2682320  22.1715590  19.0790790  23.8639320  21.4592840  18.5836690
  24.3545440  21.8268830  19.9678830  24.7364020  25.8583150  21.2430000
  24.4392310  25.2528620  20.5637780  25.6863840  25.8960460  21.1319360
  22.9810940  18.9458800  22.8589830  23.5325530  19.0554140  22.0843080
  23.4954450  19.3196400  23.5745060  23.8282450  25.5964840  27.8937800
  22.9310980  25.8204810  28.1411200  23.8535320  25.7199780  26.9449200
  30.8687670  22.4457960  13.8079060  31.3080950  21.6080390  13.6616880
  31.5816090  23.0787360  13.8943200  22.6553670  22.4678160  26.4695170
  22.5161440  23.3400960  26.8382570  21.7735030  22.1250970  26.3243110
  28.9783050  27.3854030  17.7760300  29.4178960  28.1278360  17.3615690
  28.9169940  27.6280600  18.6999260  24.4534020  28.4099860  28.6780320
  24.4249450  28.8142810  27.8108750  24.2898990  27.4810220  28.5151920
  34.4504810  13.7000770  12.1220100  34.1377470  13.7927600  13.0219170
  35.2117280  14.2781800  12.0717530  20.9686950  21.0660570  16.5797440
  20.8484550  21.7922660  15.9678710  20.6587840  20.2963480  16.1025350
  18.6072320  24.2375710  22.3866080  18.6852740  24.3724480  21.4421800
  19.2214000  23.5291600  22.5794200  19.8519950  25.9375900  18.7972260
  19.4448030  26.0790490  17.9425860  20.7432960  25.6536060  18.5943470
  31.6453230  30.3723150  15.1323310  31.4854370  30.0826090  16.0305140
  31.4799940  29.5963280  14.5968540  24.1241610  30.1521680  16.9094930
  23.9484090  29.2357220  16.6962730  23.2697350  30.5108970  17.1492730
  31.3479360  27.8810710  13.6921310  30.6544520  27.8788000  13.0323590
  32.0902220  27.4570030  13.2615480  30.9129290  29.5073420  17.7669800
  31.3686240  28.7262800  18.0808420  31.2521810  30.2180240  18.3110980
  35.6606100  18.4372270  28.0994240  35.0450370  18.9451940  27.5709700
  35.3402520  17.5370600  28.0420180  18.6631840  25.2789880  24.9260540
  18.8262880  24.8095240  24.1079910  19.1284290  24.7713440  25.5909380
  23.4350610  14.4095640  19.9621110  22.9918760  15.1905180  19.6305630
  23.9935600  14.7325530  20.6692050  27.7220420  17.2764160  25.5656430
  27.2599790  17.4847180  26.3776370  27.3198530  16.4623510  25.2627100
  32.7224930  18.4973110  26.6953090  31.8718520  18.1978860  27.0162160
  32.5626720  18.7415120  25.7836910  29.8174640  19.9974860  28.7951880
  30.1428050  19.1638610  28.4554110  30.6054970  20.5203380  28.9430210
  26.5509430  14.0306340  14.8426940  25.9263610  14.0266210  15.5680250
  26.4639550  13.1637300  14.4462910  25.4726510  14.9542970  21.8210710
  25.7698840  15.8605800  21.7402730  26.0212070  14.4661750  21.2070280
  23.2264830  19.5329210  17.6902360  23.0005750  19.3166380  18.5948980
  22.4457360  19.9657670  17.3448330  30.4562590  19.5392580  16.2893010
  29.8571480  20.2628380  16.1056630  31.0042200  19.4769360  15.5069460
  25.6664040  20.4314790  28.3562630  25.5707640  19.4909520  28.2063030
  26.5096020  20.6529860  27.9610700  29.0627460  18.1756120  18.3196290
  29.4557030  18.4928320  17.5064980  29.4244310  17.2968000  18.4340810
  20.7974580  16.8428460  26.5096410  20.4037970  17.6903670  26.7169190
  20.1092980  16.2054830  26.7005050  27.3719630  16.9263430  29.5793150
  26.6817950  16.7335630  30.2139240  28.1151930  17.2098070  30.1117450
  18.0991630  14.7656920  20.5426490  17.8104680  15.3359780  21.2551470
  18.8437390  14.2861370  20.9057720  18.2861860  18.7077040  11.7529210
  18.2036530  19.6507800  11.8944200  17.9344920  18.5651950  10.8741560
  29.6482600  20.7661870  22.4147070  28.9163720  21.2748680  22.7637170
  29.2506940  19.9491850  22.1135850  26.0859990  17.4416070  20.8199560
  26.0896050  17.0006020  19.9704100  26.9811110  17.7633400  20.9271380
  21.9362370  17.3242560  19.7793770  21.5962420  17.8017790  20.5360820
  21.1739690  16.8707680  19.4194870  26.1480140  18.4428150  13.8106320
  26.2692960  18.4014630  14.7592140  25.7628650  19.3052300  13.6553050
  30.1108510  16.2195550  21.8270010  30.1281250  16.6704200  22.6711860
  29.8624090  15.3201190  22.0403450  25.1601640  20.7529290  13.2089620
  24.5918540  20.3047540  12.5825530  25.8690640  21.1122070  12.6754770
  33.5379260  13.6327730  27.6656390  33.8625030  12.9017390  28.1914370
  33.5735770  13.3141370  26.7637380  20.2370820  24.6541310  27.0856350
  19.8525610  24.0134980  27.6839310  20.5483010  25.3577430  27.6551080
  26.3867960  21.5017850  22.5664970  26.7538090  21.0276420  23.3126310
  26.1973020  22.3759420  22.9073310  19.2508450  16.2461540  18.6958440
  18.9655370  15.8817210  19.5337060  19.1887310  15.5142000  18.0821580
  24.1767330  20.5426490  24.8849180  23.8724400  21.4218470  25.1099540
  25.1313790  20.6026280  24.9206620  22.7049120  24.7487480  15.4816030
  21.9311380  24.2085100  15.3214750  23.4343750  24.2294090  15.1433790
  33.4637100  23.7452840  21.2742420  34.1836220  24.2408130  20.8838530
  33.2618920  23.0670730  20.6296290  28.9247040  15.1390800  15.4171810
  28.1111650  14.6403970  15.3417120  28.7308990  15.9789050  15.0008160
  31.6395430  19.5110450  13.7133970  32.5275050  19.8227680  13.5385310
  31.6100520  18.6382700  13.3214550  22.7486520  24.4167860  19.1194840
  23.2665190  23.6136120  19.0651730  22.2970540  24.3547000  19.9611670
  27.6356020  25.6834140  14.3922140  27.9771720  26.4276370  13.8965460
  26.8068730  25.9965260  14.7546970  20.2331060  21.3829230  26.0320540
  19.8746000  22.0483080  26.6193880  19.9385620  20.5512780  26.4033160
  23.4344180  21.8413470  28.9160090  23.1344320  21.9870650  28.0187910
  24.2055420  21.2818760  28.8233480  33.9109700  20.8222290  13.1813830
  33.8273420  21.2536510  12.3310270  34.6303890  21.2820640  13.6140650
  34.9396950  27.6764550  15.9095960  34.2973110  27.0220170  16.1839680
  34.5527610  28.0819640  15.1336630  30.5183430  25.0049980  19.7567650
  30.8707250  24.4078110  19.0969020  29.6345760  24.6794210  19.9275900
  26.6046710  25.7647670  17.1638060  27.2917840  26.3116880  17.5445650
  25.8179130  26.3088400  17.1987670  18.7439110  21.3820490  12.6555140
  19.6133960  21.6645290  12.9391060  18.2529430  22.1956360  12.5403950
  25.9073920  22.7693700  16.7763420  26.3636700  23.5798950  17.0023610
  25.5562130  22.4516840  17.6081910  28.2106530  28.2800040  24.0055720
  28.8548750  28.4859420  24.6829140  28.5735970  27.5188440  23.5526570
  21.8085700  13.1131350  17.2485940  21.6800330  13.1049250  18.1970860
  20.9847720  13.4514440  16.8976950  29.4838610  26.2832390  22.7233170
  30.1260840  25.5825550  22.8365340  30.0087960  27.0630830  22.5430060
  33.3294330  26.5681010  12.4472310  33.1031910  25.8511450  13.0396950
  32.9390530  26.3193450  11.6094060  19.1110360  30.5947870  13.2216770
  19.4708000  31.1937210  12.5674040  18.9702700  31.1407760  13.9951800
  18.8079630  14.8722470  26.7092640  18.0938150  15.0719390  27.3145250
  19.2274670  14.0962040  27.0807440  32.9110580  24.4852950  14.1086470
  32.6232280  24.9465640  14.8964350  33.7062750  24.0250720  14.3770690
  19.0952220  28.8602730  27.6959170  19.2043340  27.9197470  27.5554560
  18.4432780  29.1257480  27.0472900  27.0864810  27.1318620  29.0957290
  26.7661680  26.4127860  29.6402980  26.4123170  27.8073690  29.1693350
  25.1278980  27.9779070  14.0390440  25.1189080  28.7108760  13.4234950
  24.2077340  27.7310650  14.1317400  20.7285620  23.1993960  14.7837200
  20.1213570  23.9392860  14.7932500  21.2034970  23.2893320  13.9575400
  30.3018410  17.3644780  24.4594090  30.6699230  16.5439990  24.7873660
  29.4416610  17.4246670  24.8749740  33.6680440  16.3201720  15.2681650
  33.0393600  16.4247390  14.5539880  33.1732360  16.5398500  16.0575530
  28.1138580  28.0407310  12.7015630  28.2150560  27.8371300  11.7717610
  27.2140320  27.7865590  12.9063410  25.6364470  18.5987670  16.6839530
  24.9280620  19.0674010  17.1253140  25.9208950  17.9409680  17.3184720
  27.2620400  20.0184370  24.6832060  27.7605650  20.4930190  25.3483910
  27.4043350  19.0947890  24.8902090  29.6679900  15.3238330  18.1235320
  29.5447680  15.3424460  17.1744830  30.6164460  15.3717270  18.2433720
  26.7556690  30.5593630  17.3963300  27.0098190  30.5215020  16.4742670
  25.8069170  30.4326960  17.3891550  23.8399490  16.9072750  14.0590240
  24.6890020  17.3442900  13.9930430  23.4730760  17.2193010  14.8862300
  34.4687260  16.2352330  25.5260450  33.9660860  16.9757730  25.8654260
  35.2843920  16.6236330  25.2097240  32.7609270  21.4785510  18.9721810
  31.8199410  21.4935740  19.1469500  33.0753340  20.6921470  19.4182110
  22.7390910  23.1605110  12.5325770  23.5054180  23.0486470  13.0951200
  22.8165600  22.4643080  11.8802540  21.4337670  20.5930180  13.2158660
  21.5141260  19.6457690  13.3276060  22.3257420  20.9237060  13.3219320
  34.7634850  28.6494360  20.6476070  34.8882270  29.4725530  21.1199880
  35.6300410  28.4385090  20.3000220  22.2352380  30.7425570  20.3193200
  22.9714860  30.1941030  20.5901770  22.6193300  31.6081580  20.1799190
  19.1197860  26.8099140  16.1934710  18.1937640  27.0520280  16.1840120
  19.5854290  27.6373400  16.0719460  21.2410660  29.9271640  29.5078780
  22.0423390  30.2483690  29.9214180  20.7262480  29.5667220  30.2298690
  25.3454690  29.9155880  12.1418770  26.1383300  30.2044710  11.6900560
  24.8259040  29.4848050  11.4631250  34.3984860  29.1426010  13.5655510
  34.1126370  28.7291150  12.7509690  34.2004410  30.0713720  13.4456030
  18.9608470  22.4145100  28.4514830  19.4647490  21.8352380  29.0231060
  18.2215890  22.6985330  28.9891200  25.8632090  25.1359290  12.0061120
  25.7582730  24.5211640  12.7322500  25.6956310  24.6125180  11.2224130
  26.0146410  23.8216090  27.9850350  25.2492080  24.3901090  27.9005020
  26.1962370  23.5292300  27.0918580  29.1034820  24.1979320  12.6103110
  28.5544920  24.6448620  13.2545850  29.7254080  23.6928570  13.1340780
  20.9931550  20.5574690  29.3464900  21.0336890  20.2588560  30.2550130
  21.8477050  20.9582300  29.1872420  24.7709940  23.1570240  14.5068410
  25.1926360  22.9910110  15.3499800  24.8960780  22.3470470  14.0123550
  22.9337360  19.1366790  27.3139390  22.4033820  18.6457740  26.6862730
  23.6025430  19.5650990  26.7797320  27.2837580  22.1807850  11.7545510
  27.8043240  21.4656870  11.3886660  27.9305980  22.8193720  12.0546020
  23.4209660  16.1029160  27.3936680  23.3266530  15.4849910  26.6687550
  22.8407050  16.8295450  27.1666590  26.1871100  14.6602400  24.4264070
  25.7388400  14.6826660  23.5809620  25.5536300  14.2621420  25.0234370
  26.5930650  23.5556730  25.0476510  27.0118760  24.3989460  24.8752750
  25.6739280  23.6928770  24.8183290  28.9294550  21.2872910  26.4314350
  29.0490760  20.6914050  27.1709190  29.7888550  21.3242600  26.0115650
  31.2682450  21.8410100  25.0076860  30.7417670  22.3652720  24.4042000
  31.6113790  22.4737490  25.6386590  23.6668840  19.2303470  11.4526570
  23.4657900  18.3670830  11.8139910  23.4960890  19.1436830  10.5148170
  24.4438070  29.8609740  26.1634240  23.9059160  30.5855800  25.8442940
  24.6972030  29.3840080  25.3731580  25.6963320  17.8294260  27.6890170
  26.2863010  17.5210110  28.3767990  24.8783560  17.3574010  27.8450070
  30.5156750  17.4460070  27.9223190  29.8272270  16.7841610  27.8573180
  31.2362770  16.9998340  28.3671650  31.1457150  14.0411700  13.9813450
  31.4259440  13.1979600  14.3372870  30.3722880  14.2734810  14.4952200
  22.4651640  16.3304090  11.4404450  22.7677540  16.3371520  10.5323600
  23.2046230  15.9801950  11.9372110  25.6836570  15.2738710  12.4260650
  25.3358570  14.5962700  11.8463100  25.8849340  14.8128220  13.2404040
  27.8485610  30.2619460  14.0447250  28.7436400  30.6004430  14.0666010
  27.8803240  29.5398870  13.4171530  21.4881770  25.6346510  12.2734250
  21.9256640  26.1776180  12.9291830  21.9729500  24.8093460  12.2830590
  18.7027570  28.4235540  19.7254510  19.0330580  27.5556600  19.4933150
  19.1318570  28.6294060  20.5559470  23.2989490  26.7544550  17.3856480
  22.9985030  26.6309520  18.2860390  23.1926980  25.8953140  16.9772210
  19.1917780  29.2906130  22.4636140  18.7548770  29.4706930  23.2960290
  19.7595460  30.0480750  22.3217860  36.0681410  26.5340950  12.0883160
  35.2374370  26.6017600  12.5590390  36.2453240  27.4245070  11.7850020
  35.5237870  23.2788430  14.5917360  36.2856780  23.8485080  14.6977050
  35.5392240  22.7115630  15.3625670  19.0242210  21.8026360  18.8225020
  18.3691050  21.5338000  18.1784720  19.8620160  21.6930840  18.3727000
  36.5297840  24.1338530  19.4359290  36.9006670  23.3505850  19.0295260
  37.1699770  24.8227630  19.2576590  35.5757040  23.5722800  11.7489880
  35.8505880  24.4801680  11.6209100  35.3867780  23.5085330  12.6851870
  31.9732650  16.5967650  13.0443510  32.3917530  16.4098630  12.2040170
  31.6668710  15.7446700  13.3546440  35.4722380  21.5091790  16.7419310
  35.0965980  20.7419720  16.3100600  34.7425500  21.8914490  17.2294240
  20.0618140  22.1878930  23.3628360  20.4291180  22.1006330  24.2424380
  19.4928960  21.4245480  23.2635220  19.6134140  19.0988020  27.2686780
  18.7190190  19.0654780  27.6080490  20.1531690  19.2974810  28.0338030
  33.3010070  15.8819740  29.1538530  34.1780250  15.8903140  29.5372530
  33.3130910  15.1450580  28.5430880  18.2380290  19.0125290  14.7650350
  17.3344370  19.2755490  14.5902010  18.7220910  19.2836460  13.9850310
  34.7473340  19.7349280  20.0426550  35.2710820  19.2411930  19.4116720
  35.3332760  19.8699640  20.7874120  34.9263060  19.8189150  23.5646100
  33.9765770  19.7852690  23.6791090  35.1076070  20.7289260  23.3295870
  20.7807500  18.0690830  12.6744730  21.4899200  17.6474050  12.1892010
  20.0647440  18.1366060  12.0428080  20.4281660  14.1230160  11.7147380
  21.1509790  14.6639100  12.0328600  20.7006180  13.8493580  10.8388920
  34.2373310  18.9922630  15.9818960  34.7332430  18.7593500  16.7667840
  34.0389380  18.1534470  15.5656600  20.1173850  13.3736350  21.6170000
  20.7650040  12.8233730  21.1765160  20.5375690  13.6279500  22.4385810
  35.6660470  17.6283580  18.5156640  35.5559750  17.4739620  19.4538910
  36.4268060  17.1004520  18.2732050  34.0126190  13.5677710  24.9739640
  34.6498410  14.1811850  25.3398830  34.1601080  13.6038370  24.0288870
  36.5550740  15.4591500  11.7562780  37.4800050  15.3272680  11.5481070
  36.5326530  15.5384320  12.7099230  36.6289230  16.2302160  14.3819490
  35.8340730  16.1647280  14.9112400  36.8332510  17.1652800  14.3704840
  33.5707650  30.2693710  18.3757880  34.1666720  29.9478280  17.6992300
  33.8285800  29.7965530  19.1671150  19.8705850  13.5292020  24.3595320
  19.5220670  13.9855840  25.1253500  19.5393550  12.6349150  24.4417750
  21.4770220  26.7011620  28.5248510  21.4339850  26.3304530  29.4062970
  21.6081230  27.6389190  28.6650330  25.1776250  28.2571210  24.1258230
  24.9367610  28.5245770  23.2388750  26.1178890  28.4276940  24.1809090
  27.3830670  14.7203900  27.8814740  27.3219560  15.3125730  28.6310150
  28.3231050  14.6129860  27.7365000  30.0205230  14.3773960  27.5207030
  30.6345640  14.6953250  26.8588110  30.5654790  13.8922550  28.1402890
  20.5426490  13.0568220  27.6346090  21.0909480  12.8756270  26.8712200
  20.6081800  12.2662330  28.1702400  21.3158250  29.6473870  25.6446290
  20.7218570  29.5158570  26.3836330  21.3082090  28.8112010  25.1788390
  30.7613270  12.9406100  23.8476320  29.8873110  13.2741210  23.6449250
  30.6524020  12.4679280  24.6728190  31.6685250  15.1476970  25.2318040
  31.3398610  14.3328730  24.8519770  32.6167550  15.1046780  25.1083730
  20.9470480  27.0132250  24.5954330  20.2204540  26.3937540  24.5280280
  21.0079630  27.4072860  23.7252410  24.5515580  29.2277250  21.3803740
  25.0680600  28.6164610  20.8552000  25.2012960  29.7306030  21.8714750
  27.2911080  30.1185740  22.2072720  27.5788890  29.8640040  21.3305730
  27.8034300  29.5663100  22.7978290  28.5088090  13.8575940  22.7869230
  27.7259880  14.3321440  23.0665990  28.2151020  12.9530770  22.6782410
  33.0609160  14.5599040  20.8318320  33.5017250  14.5044140  19.9839920
  32.7916750  15.4757050  20.9028500  34.9247730  14.1914280  18.8427140
  34.8636130  13.2475500  18.6958160  35.7039760  14.2994370  19.3880600
  19.2300480  30.3306640  17.8051090  19.0622520  29.6977320  18.5032980
  18.3634990  30.5366040  17.4545280  19.8528500  14.1623420  15.3082950
  20.6107860  14.2752300  14.7346980  19.3905670  14.9992620  15.2626380
  26.3942310  16.2762690  18.2985260  25.5816820  15.9019580  17.9581140
  26.8983950  15.5207770  18.6006450  30.8967290  12.9405140  19.5368330
  31.4996660  13.5125350  20.0116850  30.1560280  13.5044580  19.3142230
  34.0401890  13.3426700  14.8108610  34.2352520  14.2410150  15.0776040
  33.2531760  13.1113780  15.3041560  20.8363180  29.0239870  15.2501230
  20.3110800  29.4047900  14.5463190  20.7607760  29.6490640  15.9710940
  22.2253650  14.6887470  13.8484920  22.7546410  13.9017270  13.7192870
  22.8581970  15.3678660  14.0820450  24.4191490  14.4262610  16.9030310
  23.7894230  13.7249920  17.0700440  23.8796630  15.1866740  16.6863470
  35.5928500  30.5827410  16.5715170  35.7680690  29.8965150  15.9276090
  34.8950070  31.1074460  16.1791840  24.5447050  13.7046590  29.3382800
  24.2631320  14.2080190  28.5743620  24.9266750  12.9068340  28.9724930
  23.4356150  30.9722250  14.1250480  24.1674970  30.6881530  13.5774370
  23.6949820  30.7335530  15.0149860  22.5970940  27.0886980  14.1296810
  21.9679820  27.5572080  14.6782640  22.7118770  26.2436200  14.5643000
  31.1462510  13.1200170  29.9163270  31.0327960  13.4394780  30.8114790
  31.9632250  13.5212680  29.6200550  28.1838700  22.9171660   2.1607280
  27.4080800  22.4372100   2.4505850  28.8351630  22.2377310   1.9863440
  22.2004530  23.2291470   3.0383040  21.3689410  22.9740180   3.4379550
  22.8085510  23.3002240   3.7740960  22.1805790  27.2631560   3.2341060
  22.4833830  26.3729300   3.0551280  22.9249380  27.8201780   3.0063310
  18.5729490  20.7899010   2.7065130  19.1445600  20.0221210   2.7068770
  18.5731030  21.0887770   1.7971740  27.6247690  25.5928850   2.1677440
  27.5555970  24.6518790   2.0066570  28.3867550  25.6830260   2.7400010
  19.8154360  16.1983370   4.4934060  19.6357200  15.3009120   4.7736820
  19.4134440  16.7455240   5.1681010  28.6552860  18.3999230   2.3946370
  29.0317680  17.5271110   2.2820040  28.5572370  18.7357930   1.5036810
  20.4341030  18.6943870   3.1016400  21.1151140  18.9582240   3.7203800
  20.1189080  17.8544740   3.4354410  24.6265600  19.7411230   2.1888990
  25.1343820  20.2392200   2.8294010  25.1578840  18.9646430   2.0128350
  36.7276530  17.9116420   5.8918340  36.0228700  18.2998130   5.3733450
  36.9934450  18.6066710   6.4939270  22.9101700  14.3809790   6.4552410
  22.9120140  14.8982180   5.6498310  22.0806010  13.9039970   6.4322340
  24.1604550  24.0204970   4.6325910  23.8273930  24.6473890   5.2746980
  24.3371230  24.5466850   3.8527580  32.6738460  17.8350050   2.1002250
  31.9694030  18.1234940   2.6805360  33.0350620  18.6450160   1.7401810
  22.5917030  16.0919750   4.4622860  22.9333840  16.9361800   4.1676730
  21.6532840  16.2403490   4.5788200  23.3723650  25.9885770   6.4475090
  23.9897650  26.6636850   6.1659540  22.5116770  26.3973750   6.3562590
  34.2901240  27.4525180   4.3629730  33.6064760  28.1224290   4.3546400
  34.8295530  27.6505830   3.5974590  35.7425380  17.2804840   2.4911460
  34.7950290  17.3143820   2.6226890  36.0675370  18.0943790   2.8760820
  31.8259980  29.2969310   3.0774910  31.8387140  28.8931600   2.2097170
  31.2735200  30.0716600   2.9736340  31.2245420  24.1999150   4.4057520
  31.6414210  23.9859260   3.5710980  31.9485240  24.4571940   4.9766140
  35.1707520  22.5986370   4.4973760  34.3426150  22.6679460   4.0223890
  35.7658000  23.1840680   4.0289590  32.1349530  19.3855690   5.4428630
  31.7220710  20.2109400   5.6968620  31.4025480  18.8000730   5.2504990
  24.7364020  25.8583150   2.4686510  24.4392310  25.2528620   1.7894290
  25.6863840  25.8960460   2.3575870  22.9810940  18.9458800   4.0846340
  23.5325530  19.0554140   3.3099590  23.4954450  19.3196400   4.8001570
  32.8249630  29.4315020   6.1309610  32.3480190  30.2387210   5.9382220
  32.1411420  28.7793350   6.2835820  23.8282450  25.5964840   9.1194310
  22.9310980  25.8204810   9.3667710  23.8535320  25.7199780   8.1705710
  22.6553670  22.4678160   7.6951680  22.5161440  23.3400960   8.0639080
  21.7735030  22.1250970   7.5499620  24.4534020  28.4099860   9.9036830
  24.4249450  28.8142810   9.0365260  24.2898990  27.4810220   9.7408430
  36.4048840  29.1926960  11.2001000  36.8808560  29.6709850  11.8790080
  37.0256000  29.1244450  10.4746500  18.6072320  24.2375710   3.6122590
  18.6852740  24.3724480   2.6678310  19.2214000  23.5291600   3.8050710
  35.8082090  26.3839810   8.3601010  35.9345150  26.1451690   7.4418190
  35.8503470  25.5524350   8.8323090  29.6698830  30.0867810   6.9295820
  30.1843500  29.9975820   7.7318250  28.8267910  30.4327510   7.2223730
  35.6606100  18.4372270   9.3250750  35.0450370  18.9451940   8.7966210
  35.3402520  17.5370600   9.2676690  18.6631840  25.2789880   6.1517050
  18.8262880  24.8095240   5.3336420  19.1284290  24.7713440   6.8165890
  27.7220420  17.2764160   6.7912940  27.2599790  17.4847180   7.6032880
  27.3198530  16.4623510   6.4883610  32.7224930  18.4973110   7.9209600
  31.8718520  18.1978860   8.2418670  32.5626720  18.7415120   7.0093420
  29.8174640  19.9974860  10.0208390  30.1428050  19.1638610   9.6810620
  30.6054970  20.5203380  10.1686720  25.4726510  14.9542970   3.0467220
  25.7698840  15.8605800   2.9659240  26.0212070  14.4661750   2.4326790
  25.6664040  20.4314790   9.5819140  25.5707640  19.4909520   9.4319540
  26.5096020  20.6529860   9.1867210  20.7974580  16.8428460   7.7352920
  20.4037970  17.6903670   7.9425700  20.1092980  16.2054830   7.9261560
  27.3719630  16.9263430  10.8049660  26.6817950  16.7335630  11.4395750
  28.1151930  17.2098070  11.3373960  18.0991630  14.7656920   1.7683000
  17.8104680  15.3359780   2.4807980  18.8437390  14.2861370   2.1314230
  29.6482600  20.7661870   3.6403580  28.9163720  21.2748680   3.9893680
  29.2506940  19.9491850   3.3392360  30.1108510  16.2195550   3.0526520
  30.1281250  16.6704200   3.8968370  29.8624090  15.3201190   3.2659960
  33.5379260  13.6327730   8.8912900  33.8625030  12.9017390   9.4170880
  33.5735770  13.3141370   7.9893890  20.2370820  24.6541310   8.3112860
  19.8525610  24.0134980   8.9095820  20.5483010  25.3577430   8.8807590
  26.3867960  21.5017850   3.7921480  26.7538090  21.0276420   4.5382820
  26.1973020  22.3759420   4.1329820  24.1767330  20.5426490   6.1105690
  23.8724400  21.4218470   6.3356050  25.1313790  20.6026280   6.1463130
  33.4637100  23.7452840   2.4998930  34.1836220  24.2408130   2.1095040
  33.2618920  23.0670730   1.8552800  28.8455900  23.8161900   8.3867930
  28.7793210  22.8957570   8.1325520  28.2161040  23.9137340   9.1012570
  20.2331060  21.3829230   7.2577050  19.8746000  22.0483080   7.8450390
  19.9385620  20.5512780   7.6289670  23.4344180  21.8413470  10.1416600
  23.1344320  21.9870650   9.2444420  24.2055420  21.2818760  10.0489990
  28.7772630  26.6382470   8.1371730  28.7917170  25.7063430   7.9190640
  28.0697730  26.7242230   8.7761500  34.9883840  23.2789810   7.4840310
  34.2632030  23.8718590   7.2869700  35.5159300  23.2713350   6.6853680
  28.2106530  28.2800040   5.2312230  28.8548750  28.4859420   5.9085650
  28.5735970  27.5188440   4.7783080  29.4838610  26.2832390   3.9489680
  30.1260840  25.5825550   4.0621850  30.0087960  27.0630830   3.7686570
  31.2576230  27.0827290   7.1525740  31.5932470  27.6693980   7.8303660
  30.3376570  26.9520000   7.3823530  18.8079630  14.8722470   7.9349150
  18.0938150  15.0719390   8.5401760  19.2274670  14.0962040   8.3063950
  19.0952220  28.8602730   8.9215680  19.2043340  27.9197470   8.7811070
  18.4432780  29.1257480   8.2729410  27.0864810  27.1318620  10.3213800
  26.7661680  26.4127860  10.8659490  26.4123170  27.8073690  10.3949860
  30.3018410  17.3644780   5.6850600  30.6699230  16.5439990   6.0130170
  29.4416610  17.4246670   6.1006250  27.2620400  20.0184370   5.9088570
  27.7605650  20.4930190   6.5740420  27.4043350  19.0947890   6.1158600
  34.4687260  16.2352330   6.7516960  33.9660860  16.9757730   7.0910770
  35.2843920  16.6236330   6.4353750  34.7634850  28.6494360   1.8732580
  34.8882270  29.4725530   2.3456390  35.6300410  28.4385090   1.5256730
  21.2410660  29.9271640  10.7335290  22.0423390  30.2483690  11.1470690
  20.7262480  29.5667220  11.4555200  30.0775290  26.0351510  10.6810700
  29.4713450  26.0583110   9.9406450  29.7729400  25.3034550  11.2177950
  31.5075660  29.7631800   9.2920110  32.4597410  29.6789820   9.2420350
  31.3603880  30.4273510   9.9653900  18.9608470  22.4145100   9.6771340
  19.4647490  21.8352380  10.2487570  18.2215890  22.6985330  10.2147710
  26.0146410  23.8216090   9.2106860  25.2492080  24.3901090   9.1261530
  26.1962370  23.5292300   8.3175090  33.1569760  25.5521420   9.7681880
  33.8979230  25.8897180   9.2649340  32.3942440  25.7213480   9.2151650
  20.9931550  20.5574690  10.5721410  21.0336890  20.2588560  11.4806640
  21.8477050  20.9582300  10.4128930  22.9337360  19.1366790   8.5395900
  22.4033820  18.6457740   7.9119240  23.6025430  19.5650990   8.0053830
  31.8315420  23.6036250   8.3037090  32.2456440  23.7581330   9.1527510
  30.8966420  23.7291470   8.4662870  32.3037590  20.9432410  10.3076240
  32.8858360  20.1884730  10.2196720  32.4799360  21.4739850   9.5307720
  23.4209660  16.1029160   8.6193190  23.3266530  15.4849910   7.8944060
  22.8407050  16.8295450   8.3923100  26.1871100  14.6602400   5.6520580
  25.7388400  14.6826660   4.8066130  25.5536300  14.2621420   6.2490880
  26.5930650  23.5556730   6.2733020  27.0118760  24.3989460   6.1009260
  25.6739280  23.6928770   6.0439800  28.9294550  21.2872910   7.6570860
  29.0490760  20.6914050   8.3965700  29.7888550  21.3242600   7.2372160
  31.2682450  21.8410100   6.2333370  30.7417670  22.3652720   5.6298510
  31.6113790  22.4737490   6.8643100  24.4438070  29.8609740   7.3890750
  23.9059160  30.5855800   7.0699450  24.6972030  29.3840080   6.5988090
  25.6963320  17.8294260   8.9146680  26.2863010  17.5210110   9.6024500
  24.8783560  17.3574010   9.0706580  30.5156750  17.4460070   9.1479700
  29.8272270  16.7841610   9.0829690  31.2362770  16.9998340   9.5928160
  27.3000280  31.0960950   7.6477400  27.2258980  31.9996090   7.9549770
  26.3979120  30.7772850   7.6199470  19.1917780  29.2906130   3.6892650
  18.7548770  29.4706930   4.5216800  19.7595460  30.0480750   3.5474370
  34.8279960  28.7923130   7.9769960  34.2281950  28.8515690   7.2333880
  34.9573860  27.8528110   8.1066810  33.5131600  25.5175110   6.0746120
  32.6991440  25.9472270   6.3371910  33.9205800  26.1293520   5.4615170
  20.0618140  22.1878930   4.5884870  20.4291180  22.1006330   5.4680890
  19.4928960  21.4245480   4.4891730  34.8622000  20.6563310   7.6015340
  34.6308090  20.4276060   6.7013290  35.1226550  21.5762860   7.5560230
  19.6134140  19.0988020   8.4943290  18.7190190  19.0654780   8.8337000
  20.1531690  19.2974810   9.2594540  33.3010070  15.8819740  10.3795040
  34.1780250  15.8903140  10.7629040  33.3130910  15.1450580   9.7687390
  34.9263060  19.8189150   4.7902610  33.9765770  19.7852690   4.9047600
  35.1076070  20.7289260   4.5552380  20.1173850  13.3736350   2.8426510
  20.7650040  12.8233730   2.4021670  20.5375690  13.6279500   3.6642320
  34.0126190  13.5677710   6.1996150  34.6498410  14.1811850   6.5655340
  34.1601080  13.6038370   5.2545380  19.8705850  13.5292020   5.5851830
  19.5220670  13.9855840   6.3510010  19.5393550  12.6349150   5.6674260
  21.4770220  26.7011620   9.7505020  21.4339850  26.3304530  10.6319480
  21.6081230  27.6389190   9.8906840  25.1776250  28.2571210   5.3514740
  24.9367610  28.5245770   4.4645260  26.1178890  28.4276940   5.4065600
  27.3830670  14.7203900   9.1071250  27.3219560  15.3125730   9.8566660
  28.3231050  14.6129860   8.9621510  30.0205230  14.3773960   8.7463540
  30.6345640  14.6953250   8.0844620  30.5654790  13.8922550   9.3659400
  36.4380410  30.2765590   6.1525380  35.9438690  30.6734460   5.4352510
  35.8293700  29.6514800   6.5462660  20.5426490  13.0568220   8.8602600
  21.0909480  12.8756270   8.0968710  20.6081800  12.2662330   9.3958910
  21.3158250  29.6473870   6.8702800  20.7218570  29.5158570   7.6092840
  21.3082090  28.8112010   6.4044900  30.7613270  12.9406100   5.0732830
  29.8873110  13.2741210   4.8705760  30.6524020  12.4679280   5.8984700
  31.6685250  15.1476970   6.4574550  31.3398610  14.3328730   6.0776280
  32.6167550  15.1046780   6.3340240  34.1219860  30.9189010   3.4312120
  33.6622830  31.6704820   3.0570140  33.4932320  30.1995480   3.3726920
  20.9470480  27.0132250   5.8210840  20.2204540  26.3937540   5.7536790
  21.0079630  27.4072860   4.9508920  24.5515580  29.2277250   2.6060250
  25.0680600  28.6164610   2.0808510  25.2012960  29.7306030   3.0971260
  27.2911080  30.1185740   3.4329230  27.5788890  29.8640040   2.5562240
  27.8034300  29.5663100   4.0234800  28.5088090  13.8575940   4.0125740
  27.7259880  14.3321440   4.2922500  28.2151020  12.9530770   3.9038920
  27.3583440  31.0401840  10.7997430  28.2850750  30.8046110  10.8433390
  27.3433870  31.8673840  10.3183460  24.5447050  13.7046590  10.5639310
  24.2631320  14.2080190   9.8000130  24.9266750  12.9068340  10.1981440
  31.1462510  13.1200170  11.1419780  31.0327960  13.4394780  12.0371300
  31.9632250  13.5212680  10.8457060  33.9261000  30.2671700  10.6238470
  34.7186320  29.7720930  10.4164430  34.2194150  30.9461840  11.2314080
  32.2046130   8.5488360  57.2636880  31.7427660   7.7775600  57.5924050
  33.0171680   8.5754430  57.7689330  28.4309440  10.8346370  56.8840870
  27.8120880  11.2903870  56.3135310  29.2861220  10.9897830  56.4830570
  29.2972790   5.7185610  54.2772780  28.6790060   6.1835060  53.7135500
  29.8096040   6.4113090  54.6942290  18.6655990   6.4042140  51.6512410
  18.2883970   6.8929240  50.9197310  18.9229060   7.0767420  52.2818940
  33.1205400   7.2442040  54.4895550  33.0101730   6.3016370  54.6144970
  33.1173650   7.6057680  55.3758310  28.6625680   2.8707360  53.8458040
  27.7354960   2.8044740  54.0746510  28.8150500   3.8087490  53.7313280
  32.6922970   4.4327660  54.3493290  32.0735390   4.0947210  53.7019590
  32.6747420   3.7887420  55.0572480  24.2682320   3.3972100  56.6277770
  23.8639320   2.6849350  56.1323670  24.3545440   3.0525340  57.5165810
  30.8687670   3.6714470  51.3566040  31.3080950   2.8336900  51.2103860
  31.5816090   4.3043870  51.4430180  28.9783050   8.6110540  55.3247280
  29.4178960   9.3534870  54.9102670  28.9169940   8.8537110  56.2486240
  20.9686950   2.2917080  54.1284420  20.8484550   3.0179170  53.5165690
  20.6587840   1.5219990  53.6512330  19.8519950   7.1632410  56.3459240
  19.4448030   7.3047000  55.4912840  20.7432960   6.8792570  56.1430450
  31.6453230  11.5979660  52.6810290  31.4854370  11.3082600  53.5792120
  31.4799940  10.8219790  52.1455520  24.1241610  11.3778190  54.4581910
  23.9484090  10.4613730  54.2449710  23.2697350  11.7365480  54.6979710
  31.3479360   9.1067220  51.2408290  30.6544520   9.1044510  50.5810570
  32.0902220   8.6826540  50.8102460  30.9129290  10.7329930  55.3156780
  31.3686240   9.9519310  55.6295400  31.2521810  11.4436750  55.8597960
  25.1601640   1.9785800  50.7576600  24.5918540   1.5304050  50.1312510
  25.8690640   2.3378580  50.2241750  22.7049120   5.9743990  53.0303010
  21.9311380   5.4341610  52.8701730  23.4343750   5.4550600  52.6920770
  22.7486520   5.6424370  56.6681820  23.2665190   4.8392630  56.6138710
  22.2970540   5.5803510  57.5098650  27.6356020   6.9090650  51.9409120
  27.9771720   7.6532880  51.4452440  26.8068730   7.2221770  52.3033950
  33.9109700   2.0478800  50.7300810  33.8273420   2.4793020  49.8797250
  34.6303890   2.5077150  51.1627630  34.9396950   8.9021060  53.4582940
  34.2973110   8.2476680  53.7326660  34.5527610   9.3076150  52.6823610
  30.5183430   6.2306490  57.3054630  30.8707250   5.6334620  56.6456000
  29.6345760   5.9050720  57.4762880  26.6046710   6.9904180  54.7125040
  27.2917840   7.5373390  55.0932630  25.8179130   7.5344910  54.7474650
  18.7439110   2.6077000  50.2042120  19.6133960   2.8901800  50.4878040
  18.2529430   3.4212870  50.0890930  25.9073920   3.9950210  54.3250400
  26.3636700   4.8055460  54.5510590  25.5562130   3.6773350  55.1568890
  33.3294330   7.7937520  49.9959290  33.1031910   7.0767960  50.5883930
  32.9390530   7.5449960  49.1581040  19.1110360  11.8204380  50.7703750
  19.4708000  12.4193720  50.1161020  18.9702700  12.3664270  51.5438780
  32.9110580   5.7109460  51.6573450  32.6232280   6.1722150  52.4451330
  33.7062750   5.2507230  51.9257670  25.1278980   9.2035580  51.5877420
  25.1189080   9.9365270  50.9721930  24.2077340   8.9567160  51.6804380
  20.7285620   4.4250470  52.3324180  20.1213570   5.1649370  52.3419480
  21.2034970   4.5149830  51.5062380  28.1138580   9.2663820  50.2502610
  28.2150560   9.0627810  49.3204590  27.2140320   9.0122100  50.4550390
  26.7556690  11.7850140  54.9450280  27.0098190  11.7471530  54.0229650
  25.8069170  11.6583470  54.9378530  32.7609270   2.7042020  56.5208790
  31.8199410   2.7192250  56.6956480  33.0753340   1.9177980  56.9669090
  22.7390910   4.3861620  50.0812750  23.5054180   4.2742980  50.6438180
  22.8165600   3.6899590  49.4289520  22.2352380  11.9682080  57.8680180
  22.9714860  11.4197540  58.1388750  22.6193300  12.8338090  57.7286170
  19.1197860   8.0355650  53.7421690  18.1937640   8.2776790  53.7327100
  19.5854290   8.8629910  53.6206440  25.3454690  11.1412390  49.6905750
  26.1383300  11.4301220  49.2387540  24.8259040  10.7104560  49.0118230
  34.3984860  10.3682520  51.1142490  34.1126370   9.9547660  50.2996670
  34.2004410  11.2970230  50.9943010  25.8632090   6.3615800  49.5548100
  25.7582730   5.7468150  50.2809480  25.6956310   5.8381690  48.7711110
  29.1034820   5.4235830  50.1590090  28.5544920   5.8705130  50.8032830
  29.7254080   4.9185080  50.6827760  24.7709940   4.3826750  52.0555390
  25.1926360   4.2166620  52.8986780  24.8960780   3.5726980  51.5610530
  27.2837580   3.4064360  49.3032490  27.8043240   2.6913380  48.9373640
  27.9305980   4.0450230  49.6033000  27.8485610  11.4875970  51.5934230
  28.7436400  11.8260940  51.6152990  27.8803240  10.7655380  50.9658510
  21.4881770   6.8603020  49.8221230  21.9256640   7.4032690  50.4778810
  21.9729500   6.0349970  49.8317570  18.7027570   9.6492050  57.2741490
  19.0330580   8.7813110  57.0420130  19.1318570   9.8550570  58.1046450
  23.2989490   7.9801060  54.9343460  22.9985030   7.8566030  55.8347370
  23.1926980   7.1209650  54.5259190  36.0681410   7.7597460  49.6370140
  35.2374370   7.8274110  50.1077370  36.2453240   8.6501580  49.3337000
  35.5237870   4.5044940  52.1404340  36.2856780   5.0741590  52.2464030
  35.5392240   3.9372140  52.9112650  19.0242210   3.0282870  56.3712000
  18.3691050   2.7594510  55.7271700  19.8620160   2.9187350  55.9213980
  36.5297840   5.3595040  56.9846270  36.9006670   4.5762360  56.5782240
  37.1699770   6.0484140  56.8063570  35.5757040   4.7979310  49.2976860
  35.8505880   5.7058190  49.1696080  35.3867780   4.7341840  50.2338850
  35.4722380   2.7348300  54.2906290  35.0965980   1.9676230  53.8587580
  34.7425500   3.1171000  54.7781220  33.5707650  11.4950220  55.9244860
  34.1666720  11.1734790  55.2479280  33.8285800  11.0222040  56.7158130
  19.2300480  11.5563150  55.3538070  19.0622520  10.9233830  56.0519960
  18.3634990  11.7622550  55.0032260  20.8363180  10.2496380  52.7988210
  20.3110800  10.6304410  52.0950170  20.7607760  10.8747150  53.5197920
  35.5928500  11.8083920  54.1202150  35.7680690  11.1221660  53.4763070
  34.8950070  12.3330970  53.7278820  23.4356150  12.1978760  51.6737460
  24.1674970  11.9138040  51.1261350  23.6949820  11.9592040  52.5636840
  22.5970940   8.3143490  51.6783790  21.9679820   8.7828590  52.2269620
  22.7118770   7.4692710  52.1129980  28.1838700   4.1428170  39.7094260
  27.4080800   3.6628610  39.9992830  28.8351630   3.4633820  39.5350420
  22.2004530   4.4547980  40.5870020  21.3689410   4.1996690  40.9866530
  22.8085510   4.5258750  41.3227940  32.2046130   8.5488360  38.4893390
  31.7427660   7.7775600  38.8180560  33.0171680   8.5754430  38.9945840
  22.1805790   8.4888070  40.7828040  22.4833830   7.5985810  40.6038260
  22.9249380   9.0458290  40.5550290  28.4309440  10.8346370  38.1097380
  27.8120880  11.2903870  37.5391820  29.2861220  10.9897830  37.7087080
  27.6247690   6.8185360  39.7164420  27.5555970   5.8775300  39.5553550
  28.3867550   6.9086770  40.2886990  29.2972790   5.7185610  35.5029290
  28.6790060   6.1835060  34.9392010  29.8096040   6.4113090  35.9198800
  24.1604550   5.2461480  42.1812890  23.8273930   5.8730400  42.8233960
  24.3371230   5.7723360  41.4014560  23.3723650   7.2142280  43.9962070
  23.9897650   7.8893360  43.7146520  22.5116770   7.6230260  43.9049570
  18.6655990   6.4042140  32.8768920  18.2883970   6.8929240  32.1453820
  18.9229060   7.0767420  33.5075450  34.2901240   8.6781690  41.9116710
  33.6064760   9.3480800  41.9033380  34.8295530   8.8762340  41.1461570
  31.8259980  10.5225820  40.6261890  31.8387140  10.1188110  39.7584150
  31.2735200  11.2973110  40.5223320  33.1205400   7.2442040  35.7152060
  33.0101730   6.3016370  35.8401480  33.1173650   7.6057680  36.6014820
  31.2245420   5.4255660  41.9544500  31.6414210   5.2115770  41.1197960
  31.9485240   5.6828450  42.5253120  28.6625680   2.8707360  35.0714550
  27.7354960   2.8044740  35.3003020  28.8150500   3.8087490  34.9569790
  35.1707520   3.8242880  42.0460740  34.3426150   3.8935970  41.5710870
  35.7658000   4.4097190  41.5776570  32.6922970   4.4327660  35.5749800
  32.0735390   4.0947210  34.9276100  32.6747420   3.7887420  36.2828990
  24.2682320   3.3972100  37.8534280  23.8639320   2.6849350  37.3580180
  24.3545440   3.0525340  38.7422320  24.7364020   7.0839660  40.0173490
  24.4392310   6.4785130  39.3381270  25.6863840   7.1216970  39.9062850
  32.8249630  10.6571530  43.6796590  32.3480190  11.4643720  43.4869200
  32.1411420  10.0049860  43.8322800  23.8282450   6.8221350  46.6681290
  22.9310980   7.0461320  46.9154690  23.8535320   6.9456290  45.7192690
  30.8687670   3.6714470  32.5822550  31.3080950   2.8336900  32.4360370
  31.5816090   4.3043870  32.6686690  22.6553670   3.6934670  45.2438660
  22.5161440   4.5657470  45.6126060  21.7735030   3.3507480  45.0986600
  28.9783050   8.6110540  36.5503790  29.4178960   9.3534870  36.1359180
  28.9169940   8.8537110  37.4742750  24.4534020   9.6356370  47.4523810
  24.4249450  10.0399320  46.5852240  24.2898990   8.7066730  47.2895410
  20.9686950   2.2917080  35.3540930  20.8484550   3.0179170  34.7422200
  20.6587840   1.5219990  34.8768840  36.4048840  10.4183470  48.7487980
  36.8808560  10.8966360  49.4277060  37.0256000  10.3500960  48.0233480
  18.6072320   5.4632220  41.1609570  18.6852740   5.5980990  40.2165290
  19.2214000   4.7548110  41.3537690  19.8519950   7.1632410  37.5715750
  19.4448030   7.3047000  36.7169350  20.7432960   6.8792570  37.3686960
  35.8082090   7.6096320  45.9087990  35.9345150   7.3708200  44.9905170
  35.8503470   6.7780860  46.3810070  29.6698830  11.3124320  44.4782800
  30.1843500  11.2232330  45.2805230  28.8267910  11.6584020  44.7710710
  31.6453230  11.5979660  33.9066800  31.4854370  11.3082600  34.8048630
  31.4799940  10.8219790  33.3712030  24.1241610  11.3778190  35.6838420
  23.9484090  10.4613730  35.4706220  23.2697350  11.7365480  35.9236220
  31.3479360   9.1067220  32.4664800  30.6544520   9.1044510  31.8067080
  32.0902220   8.6826540  32.0358970  30.9129290  10.7329930  36.5413290
  31.3686240   9.9519310  36.8551910  31.2521810  11.4436750  37.0854470
  18.6631840   6.5046390  43.7004030  18.8262880   6.0351750  42.8823400
  19.1284290   5.9969950  44.3652870  25.1601640   1.9785800  31.9833110
  24.5918540   1.5304050  31.3569020  25.8690640   2.3378580  31.4498260
  20.2370820   5.8797820  45.8599840  19.8525610   5.2391490  46.4582800
  20.5483010   6.5833940  46.4294570  26.3867960   2.7274360  41.3408460
  26.7538090   2.2532930  42.0869800  26.1973020   3.6015930  41.6816800
  24.1767330   1.7683000  43.6592670  23.8724400   2.6474980  43.8843030
  25.1313790   1.8282790  43.6950110  22.7049120   5.9743990  34.2559520
  21.9311380   5.4341610  34.0958240  23.4343750   5.4550600  33.9177280
  33.4637100   4.9709350  40.0485910  34.1836220   5.4664640  39.6582020
  33.2618920   4.2927240  39.4039780  28.8455900   5.0418410  45.9354910
  28.7793210   4.1214080  45.6812500  28.2161040   5.1393850  46.6499550
  22.7486520   5.6424370  37.8938330  23.2665190   4.8392630  37.8395220
  22.2970540   5.5803510  38.7355160  27.6356020   6.9090650  33.1665630
  27.9771720   7.6532880  32.6708950  26.8068730   7.2221770  33.5290460
  20.2331060   2.6085740  44.8064030  19.8746000   3.2739590  45.3937370
  19.9385620   1.7769290  45.1776650  23.4344180   3.0669980  47.6903580
  23.1344320   3.2127160  46.7931400  24.2055420   2.5075270  47.5976970
  28.7772630   7.8638980  45.6858710  28.7917170   6.9319940  45.4677620
  28.0697730   7.9498740  46.3248480  33.9109700   2.0478800  31.9557320
  33.8273420   2.4793020  31.1053760  34.6303890   2.5077150  32.3884140
  34.9883840   4.5046320  45.0327290  34.2632030   5.0975100  44.8356680
  35.5159300   4.4969860  44.2340660  34.9396950   8.9021060  34.6839450
  34.2973110   8.2476680  34.9583170  34.5527610   9.3076150  33.9080120
  30.5183430   6.2306490  38.5311140  30.8707250   5.6334620  37.8712510
  29.6345760   5.9050720  38.7019390  26.6046710   6.9904180  35.9381550
  27.2917840   7.5373390  36.3189140  25.8179130   7.5344910  35.9731160
  18.7439110   2.6077000  31.4298630  19.6133960   2.8901800  31.7134550
  18.2529430   3.4212870  31.3147440  25.9073920   3.9950210  35.5506910
  26.3636700   4.8055460  35.7767100  25.5562130   3.6773350  36.3825400
  28.2106530   9.5056550  42.7799210  28.8548750   9.7115930  43.4572630
  28.5735970   8.7444950  42.3270060  29.4838610   7.5088900  41.4976660
  30.1260840   6.8082060  41.6108830  30.0087960   8.2887340  41.3173550
  33.3294330   7.7937520  31.2215800  33.1031910   7.0767960  31.8140440
  32.9390530   7.5449960  30.3837550  31.2576230   8.3083800  44.7012720
  31.5932470   8.8950490  45.3790640  30.3376570   8.1776510  44.9310510
  19.1110360  11.8204380  31.9960260  19.4708000  12.4193720  31.3417530
  18.9702700  12.3664270  32.7695290  32.9110580   5.7109460  32.8829960
  32.6232280   6.1722150  33.6707840  33.7062750   5.2507230  33.1514180
  19.0952220  10.0859240  46.4702660  19.2043340   9.1453980  46.3298050
  18.4432780  10.3513990  45.8216390  27.0864810   8.3575130  47.8700780
  26.7661680   7.6384370  48.4146470  26.4123170   9.0330200  47.9436840
  25.1278980   9.2035580  32.8133930  25.1189080   9.9365270  32.1978440
  24.2077340   8.9567160  32.9060890  20.7285620   4.4250470  33.5580690
  20.1213570   5.1649370  33.5675990  21.2034970   4.5149830  32.7318890
  28.1138580   9.2663820  31.4759120  28.2150560   9.0627810  30.5461100
  27.2140320   9.0122100  31.6806900  26.7556690  11.7850140  36.1706790
  27.0098190  11.7471530  35.2486160  25.8069170  11.6583470  36.1635040
  32.7609270   2.7042020  37.7465300  31.8199410   2.7192250  37.9212990
  33.0753340   1.9177980  38.1925600  22.7390910   4.3861620  31.3069260
  23.5054180   4.2742980  31.8694690  22.8165600   3.6899590  30.6546030
  34.7634850   9.8750870  39.4219560  34.8882270  10.6982040  39.8943370
  35.6300410   9.6641600  39.0743710  22.2352380  11.9682080  39.0936690
  22.9714860  11.4197540  39.3645260  22.6193300  12.8338090  38.9542680
  19.1197860   8.0355650  34.9678200  18.1937640   8.2776790  34.9583610
  19.5854290   8.8629910  34.8462950  21.2410660  11.1528150  48.2822270
  22.0423390  11.4740200  48.6957670  20.7262480  10.7923730  49.0042180
  25.3454690  11.1412390  30.9162260  26.1383300  11.4301220  30.4644050
  24.8259040  10.7104560  30.2374740  30.0775290   7.2608020  48.2297680
  29.4713450   7.2839620  47.4893430  29.7729400   6.5291060  48.7664930
  31.5075660  10.9888310  46.8407090  32.4597410  10.9046330  46.7907330
  31.3603880  11.6530020  47.5140880  34.3984860  10.3682520  32.3399000
  34.1126370   9.9547660  31.5253180  34.2004410  11.2970230  32.2199520
  18.9608470   3.6401610  47.2258320  19.4647490   3.0608890  47.7974550
  18.2215890   3.9241840  47.7634690  25.8632090   6.3615800  30.7804610
  25.7582730   5.7468150  31.5065990  25.6956310   5.8381690  29.9967620
  26.0146410   5.0472600  46.7593840  25.2492080   5.6157600  46.6748510
  26.1962370   4.7548810  45.8662070  29.1034820   5.4235830  31.3846600
  28.5544920   5.8705130  32.0289340  29.7254080   4.9185080  31.9084270
  33.1569760   6.7777930  47.3168860  33.8979230   7.1153690  46.8136320
  32.3942440   6.9469990  46.7638630  20.9931550   1.7831200  48.1208390
  21.0336890   1.4845070  49.0293620  21.8477050   2.1838810  47.9615910
  24.7709940   4.3826750  33.2811900  25.1926360   4.2166620  34.1243290
  24.8960780   3.5726980  32.7867040  27.2837580   3.4064360  30.5289000
  27.8043240   2.6913380  30.1630150  27.9305980   4.0450230  30.8289510
  31.8315420   4.8292760  45.8524070  32.2456440   4.9837840  46.7014490
  30.8966420   4.9547980  46.0149850  26.5930650   4.7813240  43.8220000
  27.0118760   5.6245970  43.6496240  25.6739280   4.9185280  43.5926780
  28.9294550   2.5129420  45.2057840  29.0490760   1.9170560  45.9452680
  29.7888550   2.5499110  44.7859140  31.2682450   3.0666610  43.7820350
  30.7417670   3.5909230  43.1785490  31.6113790   3.6994000  44.4130080
  24.4438070  11.0866250  44.9377730  23.9059160  11.8112310  44.6186430
  24.6972030  10.6096590  44.1475070  27.3000280  12.3217460  45.1964380
  27.2258980  13.2252600  45.5036750  26.3979120  12.0029360  45.1686450
  27.8485610  11.4875970  32.8190740  28.7436400  11.8260940  32.8409500
  27.8803240  10.7655380  32.1915020  21.4881770   6.8603020  31.0477740
  21.9256640   7.4032690  31.7035320  21.9729500   6.0349970  31.0574080
  18.7027570   9.6492050  38.4998000  19.0330580   8.7813110  38.2676640
  19.1318570   9.8550570  39.3302960  23.2989490   7.9801060  36.1599970
  22.9985030   7.8566030  37.0603880  23.1926980   7.1209650  35.7515700
  19.1917780  10.5162640  41.2379630  18.7548770  10.6963440  42.0703780
  19.7595460  11.2737260  41.0961350  34.8279960  10.0179640  45.5256940
  34.2281950  10.0772200  44.7820860  34.9573860   9.0784620  45.6553790
  36.0681410   7.7597460  30.8626650  35.2374370   7.8274110  31.3333880
  36.2453240   8.6501580  30.5593510  35.5237870   4.5044940  33.3660850
  36.2856780   5.0741590  33.4720540  35.5392240   3.9372140  34.1369160
  19.0242210   3.0282870  37.5968510  18.3691050   2.7594510  36.9528210
  19.8620160   2.9187350  37.1470490  36.5297840   5.3595040  38.2102780
  36.9006670   4.5762360  37.8038750  37.1699770   6.0484140  38.0320080
  33.5131600   6.7431620  43.6233100  32.6991440   7.1728780  43.8858890
  33.9205800   7.3550030  43.0102150  35.5757040   4.7979310  30.5233370
  35.8505880   5.7058190  30.3952590  35.3867780   4.7341840  31.4595360
  35.4722380   2.7348300  35.5162800  35.0965980   1.9676230  35.0844090
  34.7425500   3.1171000  36.0037730  20.0618140   3.4135440  42.1371850
  20.4291180   3.3262840  43.0167870  19.4928960   2.6501990  42.0378710
  34.8622000   1.8819820  45.1502320  34.6308090   1.6532570  44.2500270
  35.1226550   2.8019370  45.1047210  33.5707650  11.4950220  37.1501370
  34.1666720  11.1734790  36.4735790  33.8285800  11.0222040  37.9414640
  21.4770220   7.9268130  47.2992000  21.4339850   7.5561040  48.1806460
  21.6081230   8.8645700  47.4393820  25.1776250   9.4827720  42.9001720
  24.9367610   9.7502280  42.0132240  26.1178890   9.6533450  42.9552580
  36.4380410  11.5022100  43.7012360  35.9438690  11.8990970  42.9839490
  35.8293700  10.8771310  44.0949640  21.3158250  10.8730380  44.4189780
  20.7218570  10.7415080  45.1579820  21.3082090  10.0368520  43.9531880
  34.1219860  12.1445520  40.9799100  33.6622830  12.8961330  40.6057120
  33.4932320  11.4251990  40.9213900  20.9470480   8.2388760  43.3697820
  20.2204540   7.6194050  43.3023770  21.0079630   8.6329370  42.4995900
  24.5515580  10.4533760  40.1547230  25.0680600   9.8421120  39.6295490
  25.2012960  10.9562540  40.6458240  27.2911080  11.3442250  40.9816210
  27.5788890  11.0896550  40.1049220  27.8034300  10.7919610  41.5721780
  19.2300480  11.5563150  36.5794580  19.0622520  10.9233830  37.2776470
  18.3634990  11.7622550  36.2288770  20.8363180  10.2496380  34.0244720
  20.3110800  10.6304410  33.3206680  20.7607760  10.8747150  34.7454430
  27.3583440  12.2658350  48.3484410  28.2850750  12.0302620  48.3920370
  27.3433870  13.0930350  47.8670440  35.5928500  11.8083920  35.3458660
  35.7680690  11.1221660  34.7019580  34.8950070  12.3330970  34.9535330
  23.4356150  12.1978760  32.8993970  24.1674970  11.9138040  32.3517860
  23.6949820  11.9592040  33.7893350  22.5970940   8.3143490  32.9040300
  21.9679820   8.7828590  33.4526130  22.7118770   7.4692710  33.3386490
  33.9261000  11.4928210  48.1725450  34.7186320  10.9977440  47.9651410
  34.2194150  12.1718350  48.7801060  28.1838700   4.1428170  20.9350770
  27.4080800   3.6628610  21.2249340  28.8351630   3.4633820  20.7606930
  22.2004530   4.4547980  21.8126530  21.3689410   4.1996690  22.2123040
  22.8085510   4.5258750  22.5484450  32.2046130   8.5488360  19.7149900
  31.7427660   7.7775600  20.0437070  33.0171680   8.5754430  20.2202350
  22.1805790   8.4888070  22.0084550  22.4833830   7.5985810  21.8294770
  22.9249380   9.0458290  21.7806800  28.4309440  10.8346370  19.3353890
  27.8120880  11.2903870  18.7648330  29.2861220  10.9897830  18.9343590
  27.6247690   6.8185360  20.9420930  27.5555970   5.8775300  20.7810060
  28.3867550   6.9086770  21.5143500  29.2972790   5.7185610  16.7285800
  28.6790060   6.1835060  16.1648520  29.8096040   6.4113090  17.1455310
  24.1604550   5.2461480  23.4069400  23.8273930   5.8730400  24.0490470
  24.3371230   5.7723360  22.6271070  23.3723650   7.2142280  25.2218580
  23.9897650   7.8893360  24.9403030  22.5116770   7.6230260  25.1306080
  18.6655990   6.4042140  14.1025430  18.2883970   6.8929240  13.3710330
  18.9229060   7.0767420  14.7331960  34.2901240   8.6781690  23.1373220
  33.6064760   9.3480800  23.1289890  34.8295530   8.8762340  22.3718080
  31.8259980  10.5225820  21.8518400  31.8387140  10.1188110  20.9840660
  31.2735200  11.2973110  21.7479830  33.1205400   7.2442040  16.9408570
  33.0101730   6.3016370  17.0657990  33.1173650   7.6057680  17.8271330
  31.2245420   5.4255660  23.1801010  31.6414210   5.2115770  22.3454470
  31.9485240   5.6828450  23.7509630  28.6625680   2.8707360  16.2971060
  27.7354960   2.8044740  16.5259530  28.8150500   3.8087490  16.1826300
  35.1707520   3.8242880  23.2717250  34.3426150   3.8935970  22.7967380
  35.7658000   4.4097190  22.8033080  32.6922970   4.4327660  16.8006310
  32.0735390   4.0947210  16.1532610  32.6747420   3.7887420  17.5085500
  24.2682320   3.3972100  19.0790790  23.8639320   2.6849350  18.5836690
  24.3545440   3.0525340  19.9678830  24.7364020   7.0839660  21.2430000
  24.4392310   6.4785130  20.5637780  25.6863840   7.1216970  21.1319360
  32.8249630  10.6571530  24.9053100  32.3480190  11.4643720  24.7125710
  32.1411420  10.0049860  25.0579310  23.8282450   6.8221350  27.8937800
  22.9310980   7.0461320  28.1411200  23.8535320   6.9456290  26.9449200
  30.8687670   3.6714470  13.8079060  31.3080950   2.8336900  13.6616880
  31.5816090   4.3043870  13.8943200  22.6553670   3.6934670  26.4695170
  22.5161440   4.5657470  26.8382570  21.7735030   3.3507480  26.3243110
  28.9783050   8.6110540  17.7760300  29.4178960   9.3534870  17.3615690
  28.9169940   8.8537110  18.6999260  24.4534020   9.6356370  28.6780320
  24.4249450  10.0399320  27.8108750  24.2898990   8.7066730  28.5151920
  20.9686950   2.2917080  16.5797440  20.8484550   3.0179170  15.9678710
  20.6587840   1.5219990  16.1025350  36.4048840  10.4183470  29.9744490
  36.8808560  10.8966360  30.6533570  37.0256000  10.3500960  29.2489990
  18.6072320   5.4632220  22.3866080  18.6852740   5.5980990  21.4421800
  19.2214000   4.7548110  22.5794200  19.8519950   7.1632410  18.7972260
  19.4448030   7.3047000  17.9425860  20.7432960   6.8792570  18.5943470
  35.8082090   7.6096320  27.1344500  35.9345150   7.3708200  26.2161680
  35.8503470   6.7780860  27.6066580  29.6698830  11.3124320  25.7039310
  30.1843500  11.2232330  26.5061740  28.8267910  11.6584020  25.9967220
  31.6453230  11.5979660  15.1323310  31.4854370  11.3082600  16.0305140
  31.4799940  10.8219790  14.5968540  24.1241610  11.3778190  16.9094930
  23.9484090  10.4613730  16.6962730  23.2697350  11.7365480  17.1492730
  31.3479360   9.1067220  13.6921310  30.6544520   9.1044510  13.0323590
  32.0902220   8.6826540  13.2615480  30.9129290  10.7329930  17.7669800
  31.3686240   9.9519310  18.0808420  31.2521810  11.4436750  18.3110980
  18.6631840   6.5046390  24.9260540  18.8262880   6.0351750  24.1079910
  19.1284290   5.9969950  25.5909380  25.1601640   1.9785800  13.2089620
  24.5918540   1.5304050  12.5825530  25.8690640   2.3378580  12.6754770
  20.2370820   5.8797820  27.0856350  19.8525610   5.2391490  27.6839310
  20.5483010   6.5833940  27.6551080  26.3867960   2.7274360  22.5664970
  26.7538090   2.2532930  23.3126310  26.1973020   3.6015930  22.9073310
  24.1767330   1.7683000  24.8849180  23.8724400   2.6474980  25.1099540
  25.1313790   1.8282790  24.9206620  22.7049120   5.9743990  15.4816030
  21.9311380   5.4341610  15.3214750  23.4343750   5.4550600  15.1433790
  33.4637100   4.9709350  21.2742420  34.1836220   5.4664640  20.8838530
  33.2618920   4.2927240  20.6296290  28.8455900   5.0418410  27.1611420
  28.7793210   4.1214080  26.9069010  28.2161040   5.1393850  27.8756060
  22.7486520   5.6424370  19.1194840  23.2665190   4.8392630  19.0651730
  22.2970540   5.5803510  19.9611670  27.6356020   6.9090650  14.3922140
  27.9771720   7.6532880  13.8965460  26.8068730   7.2221770  14.7546970
  20.2331060   2.6085740  26.0320540  19.8746000   3.2739590  26.6193880
  19.9385620   1.7769290  26.4033160  23.4344180   3.0669980  28.9160090
  23.1344320   3.2127160  28.0187910  24.2055420   2.5075270  28.8233480
  28.7772630   7.8638980  26.9115220  28.7917170   6.9319940  26.6934130
  28.0697730   7.9498740  27.5504990  33.9109700   2.0478800  13.1813830
  33.8273420   2.4793020  12.3310270  34.6303890   2.5077150  13.6140650
  34.9883840   4.5046320  26.2583800  34.2632030   5.0975100  26.0613190
  35.5159300   4.4969860  25.4597170  34.9396950   8.9021060  15.9095960
  34.2973110   8.2476680  16.1839680  34.5527610   9.3076150  15.1336630
  30.5183430   6.2306490  19.7567650  30.8707250   5.6334620  19.0969020
  29.6345760   5.9050720  19.9275900  26.6046710   6.9904180  17.1638060
  27.2917840   7.5373390  17.5445650  25.8179130   7.5344910  17.1987670
  18.7439110   2.6077000  12.6555140  19.6133960   2.8901800  12.9391060
  18.2529430   3.4212870  12.5403950  25.9073920   3.9950210  16.7763420
  26.3636700   4.8055460  17.0023610  25.5562130   3.6773350  17.6081910
  28.2106530   9.5056550  24.0055720  28.8548750   9.7115930  24.6829140
  28.5735970   8.7444950  23.5526570  29.4838610   7.5088900  22.7233170
  30.1260840   6.8082060  22.8365340  30.0087960   8.2887340  22.5430060
  33.3294330   7.7937520  12.4472310  33.1031910   7.0767960  13.0396950
  32.9390530   7.5449960  11.6094060  31.2576230   8.3083800  25.9269230
  31.5932470   8.8950490  26.6047150  30.3376570   8.1776510  26.1567020
  19.1110360  11.8204380  13.2216770  19.4708000  12.4193720  12.5674040
  18.9702700  12.3664270  13.9951800  32.9110580   5.7109460  14.1086470
  32.6232280   6.1722150  14.8964350  33.7062750   5.2507230  14.3770690
  19.0952220  10.0859240  27.6959170  19.2043340   9.1453980  27.5554560
  18.4432780  10.3513990  27.0472900  27.0864810   8.3575130  29.0957290
  26.7661680   7.6384370  29.6402980  26.4123170   9.0330200  29.1693350
  25.1278980   9.2035580  14.0390440  25.1189080   9.9365270  13.4234950
  24.2077340   8.9567160  14.1317400  20.7285620   4.4250470  14.7837200
  20.1213570   5.1649370  14.7932500  21.2034970   4.5149830  13.9575400
  28.1138580   9.2663820  12.7015630  28.2150560   9.0627810  11.7717610
  27.2140320   9.0122100  12.9063410  26.7556690  11.7850140  17.3963300
  27.0098190  11.7471530  16.4742670  25.8069170  11.6583470  17.3891550
  32.7609270   2.7042020  18.9721810  31.8199410   2.7192250  19.1469500
  33.0753340   1.9177980  19.4182110  22.7390910   4.3861620  12.5325770
  23.5054180   4.2742980  13.0951200  22.8165600   3.6899590  11.8802540
  34.7634850   9.8750870  20.6476070  34.8882270  10.6982040  21.1199880
  35.6300410   9.6641600  20.3000220  22.2352380  11.9682080  20.3193200
  22.9714860  11.4197540  20.5901770  22.6193300  12.8338090  20.1799190
  19.1197860   8.0355650  16.1934710  18.1937640   8.2776790  16.1840120
  19.5854290   8.8629910  16.0719460  21.2410660  11.1528150  29.5078780
  22.0423390  11.4740200  29.9214180  20.7262480  10.7923730  30.2298690
  25.3454690  11.1412390  12.1418770  26.1383300  11.4301220  11.6900560
  24.8259040  10.7104560  11.4631250  30.0775290   7.2608020  29.4554190
  29.4713450   7.2839620  28.7149940  29.7729400   6.5291060  29.9921440
  31.5075660  10.9888310  28.0663600  32.4597410  10.9046330  28.0163840
  31.3603880  11.6530020  28.7397390  34.3984860  10.3682520  13.5655510
  34.1126370   9.9547660  12.7509690  34.2004410  11.2970230  13.4456030
  18.9608470   3.6401610  28.4514830  19.4647490   3.0608890  29.0231060
  18.2215890   3.9241840  28.9891200  25.8632090   6.3615800  12.0061120
  25.7582730   5.7468150  12.7322500  25.6956310   5.8381690  11.2224130
  26.0146410   5.0472600  27.9850350  25.2492080   5.6157600  27.9005020
  26.1962370   4.7548810  27.0918580  29.1034820   5.4235830  12.6103110
  28.5544920   5.8705130  13.2545850  29.7254080   4.9185080  13.1340780
  33.1569760   6.7777930  28.5425370  33.8979230   7.1153690  28.0392830
  32.3942440   6.9469990  27.9895140  20.9931550   1.7831200  29.3464900
  21.0336890   1.4845070  30.2550130  21.8477050   2.1838810  29.1872420
  24.7709940   4.3826750  14.5068410  25.1926360   4.2166620  15.3499800
  24.8960780   3.5726980  14.0123550  27.2837580   3.4064360  11.7545510
  27.8043240   2.6913380  11.3886660  27.9305980   4.0450230  12.0546020
  31.8315420   4.8292760  27.0780580  32.2456440   4.9837840  27.9271000
  30.8966420   4.9547980  27.2406360  26.5930650   4.7813240  25.0476510
  27.0118760   5.6245970  24.8752750  25.6739280   4.9185280  24.8183290
  28.9294550   2.5129420  26.4314350  29.0490760   1.9170560  27.1709190
  29.7888550   2.5499110  26.0115650  31.2682450   3.0666610  25.0076860
  30.7417670   3.5909230  24.4042000  31.6113790   3.6994000  25.6386590
  24.4438070  11.0866250  26.1634240  23.9059160  11.8112310  25.8442940
  24.6972030  10.6096590  25.3731580  27.3000280  12.3217460  26.4220890
  27.2258980  13.2252600  26.7293260  26.3979120  12.0029360  26.3942960
  27.8485610  11.4875970  14.0447250  28.7436400  11.8260940  14.0666010
  27.8803240  10.7655380  13.4171530  21.4881770   6.8603020  12.2734250
  21.9256640   7.4032690  12.9291830  21.9729500   6.0349970  12.2830590
  18.7027570   9.6492050  19.7254510  19.0330580   8.7813110  19.4933150
  19.1318570   9.8550570  20.5559470  23.2989490   7.9801060  17.3856480
  22.9985030   7.8566030  18.2860390  23.1926980   7.1209650  16.9772210
  19.1917780  10.5162640  22.4636140  18.7548770  10.6963440  23.2960290
  19.7595460  11.2737260  22.3217860  34.8279960  10.0179640  26.7513450
  34.2281950  10.0772200  26.0077370  34.9573860   9.0784620  26.8810300
  36.0681410   7.7597460  12.0883160  35.2374370   7.8274110  12.5590390
  36.2453240   8.6501580  11.7850020  35.5237870   4.5044940  14.5917360
  36.2856780   5.0741590  14.6977050  35.5392240   3.9372140  15.3625670
  19.0242210   3.0282870  18.8225020  18.3691050   2.7594510  18.1784720
  19.8620160   2.9187350  18.3727000  36.5297840   5.3595040  19.4359290
  36.9006670   4.5762360  19.0295260  37.1699770   6.0484140  19.2576590
  33.5131600   6.7431620  24.8489610  32.6991440   7.1728780  25.1115400
  33.9205800   7.3550030  24.2358660  35.5757040   4.7979310  11.7489880
  35.8505880   5.7058190  11.6209100  35.3867780   4.7341840  12.6851870
  35.4722380   2.7348300  16.7419310  35.0965980   1.9676230  16.3100600
  34.7425500   3.1171000  17.2294240  20.0618140   3.4135440  23.3628360
  20.4291180   3.3262840  24.2424380  19.4928960   2.6501990  23.2635220
  34.8622000   1.8819820  26.3758830  34.6308090   1.6532570  25.4756780
  35.1226550   2.8019370  26.3303720  33.5707650  11.4950220  18.3757880
  34.1666720  11.1734790  17.6992300  33.8285800  11.0222040  19.1671150
  21.4770220   7.9268130  28.5248510  21.4339850   7.5561040  29.4062970
  21.6081230   8.8645700  28.6650330  25.1776250   9.4827720  24.1258230
  24.9367610   9.7502280  23.2388750  26.1178890   9.6533450  24.1809090
  36.4380410  11.5022100  24.9268870  35.9438690  11.8990970  24.2096000
  35.8293700  10.8771310  25.3206150  21.3158250  10.8730380  25.6446290
  20.7218570  10.7415080  26.3836330  21.3082090  10.0368520  25.1788390
  34.1219860  12.1445520  22.2055610  33.6622830  12.8961330  21.8313630
  33.4932320  11.4251990  22.1470410  20.9470480   8.2388760  24.5954330
  20.2204540   7.6194050  24.5280280  21.0079630   8.6329370  23.7252410
  24.5515580  10.4533760  21.3803740  25.0680600   9.8421120  20.8552000
  25.2012960  10.9562540  21.8714750  27.2911080  11.3442250  22.2072720
  27.5788890  11.0896550  21.3305730  27.8034300  10.7919610  22.7978290
  19.2300480  11.5563150  17.8051090  19.0622520  10.9233830  18.5032980
  18.3634990  11.7622550  17.4545280  20.8363180  10.2496380  15.2501230
  20.3110800  10.6304410  14.5463190  20.7607760  10.8747150  15.9710940
  27.3583440  12.2658350  29.5740920  28.2850750  12.0302620  29.6176880
  27.3433870  13.0930350  29.0926950  35.5928500  11.8083920  16.5715170
  35.7680690  11.1221660  15.9276090  34.8950070  12.3330970  16.1791840
  23.4356150  12.1978760  14.1250480  24.1674970  11.9138040  13.5774370
  23.6949820  11.9592040  15.0149860  22.5970940   8.3143490  14.1296810
  21.9679820   8.7828590  14.6782640  22.7118770   7.4692710  14.5643000
  33.9261000  11.4928210  29.3981960  34.7186320  10.9977440  29.1907920
  34.2194150  12.1718350  30.0057570  28.1838700   4.1428170   2.1607280
  27.4080800   3.6628610   2.4505850  28.8351630   3.4633820   1.9863440
  22.2004530   4.4547980   3.0383040  21.3689410   4.1996690   3.4379550
  22.8085510   4.5258750   3.7740960  22.1805790   8.4888070   3.2341060
  22.4833830   7.5985810   3.0551280  22.9249380   9.0458290   3.0063310
  27.6247690   6.8185360   2.1677440  27.5555970   5.8775300   2.0066570
  28.3867550   6.9086770   2.7400010  24.1604550   5.2461480   4.6325910
  23.8273930   5.8730400   5.2746980  24.3371230   5.7723360   3.8527580
  23.3723650   7.2142280   6.4475090  23.9897650   7.8893360   6.1659540
  22.5116770   7.6230260   6.3562590  34.2901240   8.6781690   4.3629730
  33.6064760   9.3480800   4.3546400  34.8295530   8.8762340   3.5974590
  31.8259980  10.5225820   3.0774910  31.8387140  10.1188110   2.2097170
  31.2735200  11.2973110   2.9736340  31.2245420   5.4255660   4.4057520
  31.6414210   5.2115770   3.5710980  31.9485240   5.6828450   4.9766140
  35.1707520   3.8242880   4.4973760  34.3426150   3.8935970   4.0223890
  35.7658000   4.4097190   4.0289590  24.7364020   7.0839660   2.4686510
  24.4392310   6.4785130   1.7894290  25.6863840   7.1216970   2.3575870
  32.8249630  10.6571530   6.1309610  32.3480190  11.4643720   5.9382220
  32.1411420  10.0049860   6.2835820  23.8282450   6.8221350   9.1194310
  22.9310980   7.0461320   9.3667710  23.8535320   6.9456290   8.1705710
  22.6553670   3.6934670   7.6951680  22.5161440   4.5657470   8.0639080
  21.7735030   3.3507480   7.5499620  24.4534020   9.6356370   9.9036830
  24.4249450  10.0399320   9.0365260  24.2898990   8.7066730   9.7408430
  36.4048840  10.4183470  11.2001000  36.8808560  10.8966360  11.8790080
  37.0256000  10.3500960  10.4746500  18.6072320   5.4632220   3.6122590
  18.6852740   5.5980990   2.6678310  19.2214000   4.7548110   3.8050710
  35.8082090   7.6096320   8.3601010  35.9345150   7.3708200   7.4418190
  35.8503470   6.7780860   8.8323090  29.6698830  11.3124320   6.9295820
  30.1843500  11.2232330   7.7318250  28.8267910  11.6584020   7.2223730
  18.6631840   6.5046390   6.1517050  18.8262880   6.0351750   5.3336420
  19.1284290   5.9969950   6.8165890  20.2370820   5.8797820   8.3112860
  19.8525610   5.2391490   8.9095820  20.5483010   6.5833940   8.8807590
  26.3867960   2.7274360   3.7921480  26.7538090   2.2532930   4.5382820
  26.1973020   3.6015930   4.1329820  24.1767330   1.7683000   6.1105690
  23.8724400   2.6474980   6.3356050  25.1313790   1.8282790   6.1463130
  33.4637100   4.9709350   2.4998930  34.1836220   5.4664640   2.1095040
  33.2618920   4.2927240   1.8552800  28.8455900   5.0418410   8.3867930
  28.7793210   4.1214080   8.1325520  28.2161040   5.1393850   9.1012570
  20.2331060   2.6085740   7.2577050  19.8746000   3.2739590   7.8450390
  19.9385620   1.7769290   7.6289670  23.4344180   3.0669980  10.1416600
  23.1344320   3.2127160   9.2444420  24.2055420   2.5075270  10.0489990
  28.7772630   7.8638980   8.1371730  28.7917170   6.9319940   7.9190640
  28.0697730   7.9498740   8.7761500  34.9883840   4.5046320   7.4840310
  34.2632030   5.0975100   7.2869700  35.5159300   4.4969860   6.6853680
  28.2106530   9.5056550   5.2312230  28.8548750   9.7115930   5.9085650
  28.5735970   8.7444950   4.7783080  29.4838610   7.5088900   3.9489680
  30.1260840   6.8082060   4.0621850  30.0087960   8.2887340   3.7686570
  31.2576230   8.3083800   7.1525740  31.5932470   8.8950490   7.8303660
  30.3376570   8.1776510   7.3823530  19.0952220  10.0859240   8.9215680
  19.2043340   9.1453980   8.7811070  18.4432780  10.3513990   8.2729410
  27.0864810   8.3575130  10.3213800  26.7661680   7.6384370  10.8659490
  26.4123170   9.0330200  10.3949860  34.7634850   9.8750870   1.8732580
  34.8882270  10.6982040   2.3456390  35.6300410   9.6641600   1.5256730
  21.2410660  11.1528150  10.7335290  22.0423390  11.4740200  11.1470690
  20.7262480  10.7923730  11.4555200  30.0775290   7.2608020  10.6810700
  29.4713450   7.2839620   9.9406450  29.7729400   6.5291060  11.2177950
  31.5075660  10.9888310   9.2920110  32.4597410  10.9046330   9.2420350
  31.3603880  11.6530020   9.9653900  18.9608470   3.6401610   9.6771340
  19.4647490   3.0608890  10.2487570  18.2215890   3.9241840  10.2147710
  26.0146410   5.0472600   9.2106860  25.2492080   5.6157600   9.1261530
  26.1962370   4.7548810   8.3175090  33.1569760   6.7777930   9.7681880
  33.8979230   7.1153690   9.2649340  32.3942440   6.9469990   9.2151650
  20.9931550   1.7831200  10.5721410  21.0336890   1.4845070  11.4806640
  21.8477050   2.1838810  10.4128930  31.8315420   4.8292760   8.3037090
  32.2456440   4.9837840   9.1527510  30.8966420   4.9547980   8.4662870
  26.5930650   4.7813240   6.2733020  27.0118760   5.6245970   6.1009260
  25.6739280   4.9185280   6.0439800  28.9294550   2.5129420   7.6570860
  29.0490760   1.9170560   8.3965700  29.7888550   2.5499110   7.2372160
  31.2682450   3.0666610   6.2333370  30.7417670   3.5909230   5.6298510
  31.6113790   3.6994000   6.8643100  24.4438070  11.0866250   7.3890750
  23.9059160  11.8112310   7.0699450  24.6972030  10.6096590   6.5988090
  27.3000280  12.3217460   7.6477400  27.2258980  13.2252600   7.9549770
  26.3979120  12.0029360   7.6199470  19.1917780  10.5162640   3.6892650
  18.7548770  10.6963440   4.5216800  19.7595460  11.2737260   3.5474370
  34.8279960  10.0179640   7.9769960  34.2281950  10.0772200   7.2333880
  34.9573860   9.0784620   8.1066810  33.5131600   6.7431620   6.0746120
  32.6991440   7.1728780   6.3371910  33.9205800   7.3550030   5.4615170
  20.0618140   3.4135440   4.5884870  20.4291180   3.3262840   5.4680890
  19.4928960   2.6501990   4.4891730  34.8622000   1.8819820   7.6015340
  34.6308090   1.6532570   6.7013290  35.1226550   2.8019370   7.5560230
  21.4770220   7.9268130   9.7505020  21.4339850   7.5561040  10.6319480
  21.6081230   8.8645700   9.8906840  25.1776250   9.4827720   5.3514740
  24.9367610   9.7502280   4.4645260  26.1178890   9.6533450   5.4065600
  36.4380410  11.5022100   6.1525380  35.9438690  11.8990970   5.4352510
  35.8293700  10.8771310   6.5462660  21.3158250  10.8730380   6.8702800
  20.7218570  10.7415080   7.6092840  21.3082090  10.0368520   6.4044900
  34.1219860  12.1445520   3.4312120  33.6622830  12.8961330   3.0570140
  33.4932320  11.4251990   3.3726920  20.9470480   8.2388760   5.8210840
  20.2204540   7.6194050   5.7536790  21.0079630   8.6329370   4.9508920
  24.5515580  10.4533760   2.6060250  25.0680600   9.8421120   2.0808510
  25.2012960  10.9562540   3.0971260  27.2911080  11.3442250   3.4329230
  27.5788890  11.0896550   2.5562240  27.8034300  10.7919610   4.0234800
  27.3583440  12.2658350  10.7997430  28.2850750  12.0302620  10.8433390
  27.3433870  13.0930350  10.3183460  33.9261000  11.4928210  10.6238470
  34.7186320  10.9977440  10.4164430  34.2194150  12.1718350  11.2314080
  11.2777170  96.2366600  56.6028480  11.1971220  95.3221210  56.3320190
  10.8641590  96.7333670  55.8968190   4.0114380  91.8698820  54.1794280
   4.1181130  92.7702550  54.4863040   3.1006740  91.8216790  53.8888930
  13.6633490  90.9923630  55.6505180  14.4843110  90.5020200  55.6930660
  13.6967570  91.5821290  56.4037020   7.5001430  88.6775980  57.1097920
   7.8076410  88.1222870  56.3933420   6.5702130  88.8120440  56.9270910
   9.8882190  96.7424810  53.8458040   8.9611470  96.6762190  54.0746510
  10.0407010  97.6804940  53.7313280   9.8751270  93.0141810  50.8425200
   8.9354940  93.1755770  50.9277660  10.1934530  93.7327490  50.2961190
  13.9179480  98.3045110  54.3493290  13.2991900  97.9664660  53.7019590
  13.9003930  97.6604870  55.0572480   5.4938830  97.2689550  56.6277770
   5.0895830  96.5566800  56.1323670   5.5801950  96.9242790  57.5165810
  12.0944180  97.5431920  51.3566040  12.5337460  96.7054350  51.2103860
  12.8072600  98.1761320  51.4430180  15.6761320  88.7974730  49.6707080
  15.3633980  88.8901560  50.5706150  16.4373790  89.3755760  49.6204510
   2.1943460  96.1634530  54.1284420   2.0741060  96.8896620  53.5165690
   1.8844350  95.3937440  53.6512330   4.6607120  89.5069600  57.5108090
   4.2175270  90.2879140  57.1792610   5.2192110  89.8299490  58.2179030
   7.7765940  89.1280300  52.3913920   7.1520120  89.1240170  53.1167230
   7.6896060  88.2611260  51.9949890   4.4521340  94.6303170  55.2389340
   4.2262260  94.4140340  56.1435960   3.6713870  95.0631630  54.8935310
  11.6819100  94.6366540  53.8379990  11.0827990  95.3602340  53.6543610
  12.2298710  94.5743320  53.0556440  10.2883970  93.2730080  55.8683270
  10.6813540  93.5902280  55.0551960  10.6500820  92.3941960  55.9827790
   7.3116500  92.5390030  58.3686540   7.3152560  92.0979980  57.5191080
   8.2067620  92.8607360  58.4758360   3.1618880  92.4216520  57.3280750
   2.8218930  92.8991750  58.0847800   2.3996200  91.9681640  56.9681850
   7.3736650  93.5402110  51.3593300   7.4949470  93.4988590  52.3079120
   6.9885160  94.4026260  51.2040030   6.3858150  95.8503250  50.7576600
   5.8175050  95.4021500  50.1312510   7.0947150  96.2096030  50.2241750
  10.1503550  90.2364760  52.9658790   9.3368160  89.7377930  52.8904100
   9.9565500  91.0763010  52.5495140  12.8651940  94.6084410  51.2620950
  13.7531560  94.9201640  51.0872290  12.8357030  93.7356660  50.8701530
  15.1366210  95.9196250  50.7300810  15.0529930  96.3510470  49.8797250
  15.8560400  96.3794600  51.1627630   7.1330430  97.8667660  54.3250400
   7.5893210  98.6772910  54.5510590   6.7818640  97.5490800  55.1568890
   3.0342210  88.2105310  54.7972920   2.9056840  88.2023210  55.7457840
   2.2104230  88.5488400  54.4463930  14.8936950  91.4175680  52.8168630
  14.2650110  91.5221350  52.1026860  14.3988870  91.6372460  53.6062510
   6.8620980  93.6961630  54.2326510   6.1537130  94.1647970  54.6740120
   7.1465460  93.0383640  54.8671700  10.8936410  90.4212290  55.6722300
  10.7704190  90.4398420  54.7231810  11.8420970  90.4691230  55.7920700
   5.0656000  92.0046710  51.6077220   5.9146530  92.4416860  51.5417410
   4.6987270  92.3166970  52.4349280  13.9865780  96.5759470  56.5208790
  13.0455920  96.5909700  56.6956480  14.3009850  95.7895430  56.9669090
   3.9647420  98.2579070  50.0812750   4.7310690  98.1460430  50.6438180
   4.0422110  97.5617040  49.4289520   2.6594180  95.6904140  50.7645640
   2.7397770  94.7431650  50.8763040   3.5513930  96.0211020  50.8706300
   5.9966450  98.2544200  52.0555390   6.4182870  98.0884070  52.8986780
   6.1217290  97.4444430  51.5610530   8.5094090  97.2781810  49.3032490
   9.0299750  96.5630830  48.9373640   9.1562490  97.9167680  49.6033000
   4.8925350  94.3277430  49.0013550   4.6914410  93.4644790  49.3626890
   4.7217400  94.2410790  48.0635150  12.3713660  89.1385660  51.5300430
  12.6515950  88.2953560  51.8859850  11.5979390  89.3708770  52.0439180
   3.6908150  91.4278050  48.9891430   3.9934050  91.4345480  48.0810580
   4.4302740  91.0775910  49.4859090   6.9093080  90.3712670  49.9747630
   6.5615080  89.6936660  49.3950080   7.1105850  89.9102180  50.7891020
  13.1989160  91.6941610  50.5930490  13.6174040  91.5072590  49.7527150
  12.8925220  90.8420660  50.9033420  16.6978890  96.6065750  54.2906290
  16.3222490  95.8393680  53.8587580  15.9682010  96.9888450  54.7781220
  15.9729850  94.8323240  57.5913530  16.4967330  94.3385890  56.9603700
  16.5589270  94.9673600  58.3361100  15.4629820  94.0896590  53.5305940
  15.9588940  93.8567460  54.3154820  15.2645890  93.2508430  53.1143580
  16.8916980  92.7257540  56.0643620  16.7816260  92.5713580  57.0025890
  17.6524570  92.1978480  55.8219030  17.7807250  90.5565460  49.3049760
  18.7056560  90.4246640  49.0968050  17.7583040  90.6358280  50.2586210
  17.8545740  91.3276120  51.9306470  17.0597240  91.2621240  52.4599380
  18.0589020  92.2626760  51.9191820  14.2865670  89.6573000  58.3805300
  14.7273760  89.6018100  57.5326900  14.0173260  90.5731010  58.4515480
  16.1504240  89.2888240  56.3914120  16.0892640  88.3449460  56.2445140
  16.9296270  89.3968330  56.9367580   7.6198820  91.3736650  55.8472240
   6.8073330  90.9993540  55.5068120   8.1240460  90.6181730  56.1493430
  12.1223800  88.0379100  57.0855310  12.7253170  88.6099310  57.5603830
  11.3816790  88.6018540  56.8629210  15.2658400  88.4400660  52.3595590
  15.4609030  89.3384110  52.6263020  14.4788270  88.2087740  52.8528540
   3.4510160  89.7861430  51.3971900   3.9802920  88.9991230  51.2679850
   4.0838480  90.4652620  51.6307430   5.6448000  89.5236570  54.4517290
   5.0150740  88.8223880  54.6187420   5.1053140  90.2840700  54.2350450
  11.2777170  96.2366600  37.8284990  11.1971220  95.3221210  37.5576700
  10.8641590  96.7333670  37.1224700   9.4095210  98.0145620  39.7094260
   8.6337310  97.5346060  39.9992830  10.0608140  97.3351270  39.5350420
   3.4261040  98.3265430  40.5870020   2.5945920  98.0714140  40.9866530
   4.0342020  98.3976200  41.3227940   9.8809370  93.4973190  39.9433350
  10.2574190  92.6245070  39.8307020   9.7828880  93.8331890  39.0523790
   4.0114380  91.8698820  35.4050790   4.1181130  92.7702550  35.7119550
   3.1006740  91.8216790  35.1145440  13.6633490  90.9923630  36.8761690
  14.4843110  90.5020200  36.9187170  13.6967570  91.5821290  37.6293530
   5.8522110  94.8385190  39.7375970   6.3600330  95.3366160  40.3780990
   6.3835350  94.0620390  39.5615330  17.9533040  93.0090380  43.4405320
  17.2485210  93.3972090  42.9220430  18.2190960  93.7040670  44.0426250
   4.1358210  89.4783750  44.0039390   4.1376650  89.9956140  43.1985290
   3.3062520  89.0013930  43.9809320  13.8994970  92.9324010  39.6489230
  13.1950540  93.2208900  40.2292340  14.2607130  93.7424120  39.2888790
   3.8173540  91.1893710  42.0109840   4.1590350  92.0335760  41.7163710
   2.8789350  91.3377450  42.1275180  16.9681890  92.3778800  40.0398440
  16.0206800  92.4117780  40.1713870  17.2931880  93.1917750  40.4247800
   7.5001430  88.6775980  38.3354430   7.8076410  88.1222870  37.6189930
   6.5702130  88.8120440  38.1527420   9.8882190  96.7424810  35.0714550
   8.9611470  96.6762190  35.3003020  10.0407010  97.6804940  34.9569790
   9.8751270  93.0141810  32.0681710   8.9354940  93.1755770  32.1534170
  10.1934530  93.7327490  31.5217700  16.3964030  97.6960330  42.0460740
  15.5682660  97.7653420  41.5710870  16.9914510  98.2814640  41.5776570
  13.9179480  98.3045110  35.5749800  13.2991900  97.9664660  34.9276100
  13.9003930  97.6604870  36.2828990  13.3606040  94.4829650  42.9915610
  12.9477220  95.3083360  43.2455600  12.6281990  93.8974690  42.7991970
   5.4938830  97.2689550  37.8534280   5.0895830  96.5566800  37.3580180
   5.5801950  96.9242790  38.7422320   4.2067450  94.0432760  41.6333320
   4.7582040  94.1528100  40.8586570   4.7210960  94.4170360  42.3488550
  12.0944180  97.5431920  32.5822550  12.5337460  96.7054350  32.4360370
  12.8072600  98.1761320  32.6686690   3.8810180  97.5652120  45.2438660
   3.7417950  98.4374920  45.6126060   2.9991540  97.2224930  45.0986600
  15.6761320  88.7974730  30.8963590  15.3633980  88.8901560  31.7962660
  16.4373790  89.3755760  30.8461020   2.1943460  96.1634530  35.3540930
   2.0741060  96.8896620  34.7422200   1.8844350  95.3937440  34.8768840
  16.8862610  93.5346230  46.8737730  16.2706880  94.0425900  46.3453190
  16.5659030  92.6344560  46.8163670   4.6607120  89.5069600  38.7364600
   4.2175270  90.2879140  38.4049120   5.2192110  89.8299490  39.4435540
   8.9476930  92.3738120  44.3399920   8.4856300  92.5821140  45.1519860
   8.5455040  91.5597470  44.0370590  13.9481440  93.5947070  45.4696580
  13.0975030  93.2952820  45.7905650  13.7883230  93.8389080  44.5580400
  11.0431150  95.0948820  47.5695370  11.3684560  94.2612570  47.2297600
  11.8311480  95.6177340  47.7173700   7.7765940  89.1280300  33.6170430
   7.1520120  89.1240170  34.3423740   7.6896060  88.2611260  33.2206400
   6.6983020  90.0516930  40.5954200   6.9955350  90.9579760  40.5146220
   7.2468580  89.5635710  39.9813770   4.4521340  94.6303170  36.4645850
   4.2262260  94.4140340  37.3692470   3.6713870  95.0631630  36.1191820
  11.6819100  94.6366540  35.0636500  11.0827990  95.3602340  34.8800120
  12.2298710  94.5743320  34.2812950   6.8920550  95.5288750  47.1306120
   6.7964150  94.5883480  46.9806520   7.7352530  95.7503820  46.7354190
  10.2883970  93.2730080  37.0939780  10.6813540  93.5902280  36.2808470
  10.6500820  92.3941960  37.2084300   8.5976140  92.0237390  48.3536640
   7.9074460  91.8309590  48.9882730   9.3408440  92.3072030  48.8860940
  10.8739110  95.8635830  41.1890560  10.1420230  96.3722640  41.5380660
  10.4763450  95.0465810  40.8879340   7.3116500  92.5390030  39.5943050
   7.3152560  92.0979980  38.7447590   8.2067620  92.8607360  39.7014870
   3.1618880  92.4216520  38.5537260   2.8218930  92.8991750  39.3104310
   2.3996200  91.9681640  38.1938360   7.3736650  93.5402110  32.5849810
   7.4949470  93.4988590  33.5335630   6.9885160  94.4026260  32.4296540
  11.3365020  91.3169510  40.6013500  11.3537760  91.7678160  41.4455350
  11.0880600  90.4175150  40.8146940   6.3858150  95.8503250  31.9833110
   5.8175050  95.4021500  31.3569020   7.0947150  96.2096030  31.4498260
  14.7635770  88.7301690  46.4399880  15.0881540  87.9991350  46.9657860
  14.7992280  88.4115330  45.5380870   7.6124470  96.5991810  41.3408460
   7.9794600  96.1250380  42.0869800   7.4229530  97.4733380  41.6816800
   5.4023840  95.6400450  43.6592670   5.0980910  96.5192430  43.8843030
   6.3570300  95.7000240  43.6950110  10.1503550  90.2364760  34.1915300
   9.3368160  89.7377930  34.1160610   9.9565500  91.0763010  33.7751650
  12.8651940  94.6084410  32.4877460  13.7531560  94.9201640  32.3128800
  12.8357030  93.7356660  32.0958040   4.6600690  96.9387430  47.6903580
   4.3600830  97.0844610  46.7931400   5.4311930  96.3792720  47.5976970
  15.1366210  95.9196250  31.9557320  15.0529930  96.3510470  31.1053760
  15.8560400  96.3794600  32.3884140   7.1330430  97.8667660  35.5506910
   7.5893210  98.6772910  35.7767100   6.7818640  97.5490800  36.3825400
   3.0342210  88.2105310  36.0229430   2.9056840  88.2023210  36.9714350
   2.2104230  88.5488400  35.6720440  11.5274920  92.4618740  43.2337580
  11.8955740  91.6413950  43.5617150  10.6673120  92.5220630  43.6493230
  14.8936950  91.4175680  34.0425140  14.2650110  91.5221350  33.3283370
  14.3988870  91.6372460  34.8319020   6.8620980  93.6961630  35.4583020
   6.1537130  94.1647970  35.8996630   7.1465460  93.0383640  36.0928210
   8.4876910  95.1158330  43.4575550   8.9862160  95.5904150  44.1227400
   8.6299860  94.1921850  43.6645580  10.8936410  90.4212290  36.8978810
  10.7704190  90.4398420  35.9488320  11.8420970  90.4691230  37.0177210
   5.0656000  92.0046710  32.8333730   5.9146530  92.4416860  32.7673920
   4.6987270  92.3166970  33.6605790  15.6943770  91.3326290  44.3003940
  15.1917370  92.0731690  44.6397750  16.5100430  91.7210290  43.9840730
  13.9865780  96.5759470  37.7465300  13.0455920  96.5909700  37.9212990
  14.3009850  95.7895430  38.1925600   3.9647420  98.2579070  31.3069260
   4.7310690  98.1460430  31.8694690   4.0422110  97.5617040  30.6546030
   2.6594180  95.6904140  31.9902150   2.7397770  94.7431650  32.1019550
   3.5513930  96.0211020  32.0962810   2.2188060  95.6548650  48.1208390
   2.2593400  95.3562520  49.0293620   3.0733560  96.0556260  47.9615910
   5.9966450  98.2544200  33.2811900   6.4182870  98.0884070  34.1243290
   6.1217290  97.4444430  32.7867040   4.1593870  94.2340750  46.0882880
   3.6290330  93.7431700  45.4606220   4.8281940  94.6624950  45.5540810
   8.5094090  97.2781810  30.5289000   9.0299750  96.5630830  30.1630150
   9.1562490  97.9167680  30.8289510  13.5294100  96.0406370  47.8563220
  14.1114870  95.2858690  47.7683700  13.7055870  96.5713810  47.0794700
   4.6466170  91.2003120  46.1680170   4.5523040  90.5823870  45.4431040
   4.0663560  91.9269410  45.9410080   7.4127610  89.7576360  43.2007560
   6.9644910  89.7800620  42.3553110   6.7792810  89.3595380  43.7977860
  10.1551060  96.3846870  45.2057840  10.2747270  95.7888010  45.9452680
  11.0145060  96.4216560  44.7859140  12.4938960  96.9384060  43.7820350
  11.9674180  97.4626680  43.1785490  12.8370300  97.5711450  44.4130080
   4.8925350  94.3277430  30.2270060   4.6914410  93.4644790  30.5883400
   4.7217400  94.2410790  29.2891660   6.9219830  92.9268220  46.4633660
   7.5119520  92.6184070  47.1511480   6.1040070  92.4547970  46.6193560
  11.7413260  92.5434030  46.6966680  11.0528780  91.8815570  46.6316670
  12.4619280  92.0972300  47.1415140  12.3713660  89.1385660  32.7556940
  12.6515950  88.2953560  33.1116360  11.5979390  89.3708770  33.2695690
   3.6908150  91.4278050  30.2147940   3.9934050  91.4345480  29.3067090
   4.4302740  91.0775910  30.7115600   6.9093080  90.3712670  31.2004140
   6.5615080  89.6936660  30.6206590   7.1105850  89.9102180  32.0147530
  13.1989160  91.6941610  31.8187000  13.6174040  91.5072590  30.9783660
  12.8925220  90.8420660  32.1289930  16.6978890  96.6065750  35.5162800
  16.3222490  95.8393680  35.0844090  15.9682010  96.9888450  36.0037730
  16.0878510  95.7537270  45.1502320  15.8564600  95.5250020  44.2500270
  16.3483060  96.6736820  45.1047210  14.5266580  90.9793700  47.9282020
  15.4036760  90.9877100  48.3116020  14.5387420  90.2424540  47.3174370
  15.9729850  94.8323240  38.8170040  16.4967330  94.3385890  38.1860210
  16.5589270  94.9673600  39.5617610  16.1519570  94.9163110  42.3389590
  15.2022280  94.8826650  42.4534580  16.3332580  95.8263220  42.1039360
  15.4629820  94.0896590  34.7562450  15.9588940  93.8567460  35.5411330
  15.2645890  93.2508430  34.3400090  16.8916980  92.7257540  37.2900130
  16.7816260  92.5713580  38.2282400  17.6524570  92.1978480  37.0475540
  15.2382700  88.6651670  43.7483130  15.8754920  89.2785810  44.1142320
  15.3857590  88.7012330  42.8032360  17.7807250  90.5565460  30.5306270
  18.7056560  90.4246640  30.3224560  17.7583040  90.6358280  31.4842720
  17.8545740  91.3276120  33.1562980  17.0597240  91.2621240  33.6855890
  18.0589020  92.2626760  33.1448330   8.6087180  89.8177860  46.6558230
   8.5476070  90.4099690  47.4053640   9.5487560  89.7103820  46.5108490
  11.2461740  89.4747920  46.2950520  11.8602150  89.7927210  45.6331600
  11.7911300  88.9896510  46.9146380   1.7683000  88.1542180  46.4089580
   2.3165990  87.9730230  45.6455690   1.8338310  87.3636290  46.9445890
  11.9869780  88.0380060  42.6219810  11.1129620  88.3715170  42.4192740
  11.8780530  87.5653240  43.4471680  12.8941760  90.2450930  44.0061530
  12.5655120  89.4302690  43.6263260  13.8424060  90.2020740  43.8827220
   9.7344600  88.9549900  41.5612720   8.9516390  89.4295400  41.8409480
   9.4407530  88.0504730  41.4525900  14.2865670  89.6573000  39.6061810
  14.7273760  89.6018100  38.7583410  14.0173260  90.5731010  39.6771990
  16.1504240  89.2888240  37.6170630  16.0892640  88.3449460  37.4701650
  16.9296270  89.3968330  38.1624090   7.6198820  91.3736650  37.0728750
   6.8073330  90.9993540  36.7324630   8.1240460  90.6181730  37.3749940
  12.1223800  88.0379100  38.3111820  12.7253170  88.6099310  38.7860340
  11.3816790  88.6018540  38.0885720  15.2658400  88.4400660  33.5852100
  15.4609030  89.3384110  33.8519530  14.4788270  88.2087740  34.0785050
   3.4510160  89.7861430  32.6228410   3.9802920  88.9991230  32.4936360
   4.0838480  90.4652620  32.8563940   5.6448000  89.5236570  35.6773800
   5.0150740  88.8223880  35.8443930   5.1053140  90.2840700  35.4606960
   5.7703560  88.8020550  48.1126290   5.4887830  89.3054150  47.3487110
   6.1523260  88.0042300  47.7468420  12.3719020  88.2174130  48.6906760
  12.2584470  88.5368740  49.5858280  13.1888760  88.6186640  48.3944040
  11.2777170  96.2366600  19.0541500  11.1971220  95.3221210  18.7833210
  10.8641590  96.7333670  18.3481210   9.4095210  98.0145620  20.9350770
   8.6337310  97.5346060  21.2249340  10.0608140  97.3351270  20.7606930
   3.4261040  98.3265430  21.8126530   2.5945920  98.0714140  22.2123040
   4.0342020  98.3976200  22.5484450   9.8809370  93.4973190  21.1689860
  10.2574190  92.6245070  21.0563530   9.7828880  93.8331890  20.2780300
   4.0114380  91.8698820  16.6307300   4.1181130  92.7702550  16.9376060
   3.1006740  91.8216790  16.3401950  13.6633490  90.9923630  18.1018200
  14.4843110  90.5020200  18.1443680  13.6967570  91.5821290  18.8550040
   5.8522110  94.8385190  20.9632480   6.3600330  95.3366160  21.6037500
   6.3835350  94.0620390  20.7871840  17.9533040  93.0090380  24.6661830
  17.2485210  93.3972090  24.1476940  18.2190960  93.7040670  25.2682760
   4.1358210  89.4783750  25.2295900   4.1376650  89.9956140  24.4241800
   3.3062520  89.0013930  25.2065830  13.8994970  92.9324010  20.8745740
  13.1950540  93.2208900  21.4548850  14.2607130  93.7424120  20.5145300
   3.8173540  91.1893710  23.2366350   4.1590350  92.0335760  22.9420220
   2.8789350  91.3377450  23.3531690  16.9681890  92.3778800  21.2654950
  16.0206800  92.4117780  21.3970380  17.2931880  93.1917750  21.6504310
   7.5001430  88.6775980  19.5610940   7.8076410  88.1222870  18.8446440
   6.5702130  88.8120440  19.3783930   9.8882190  96.7424810  16.2971060
   8.9611470  96.6762190  16.5259530  10.0407010  97.6804940  16.1826300
   9.8751270  93.0141810  13.2938220   8.9354940  93.1755770  13.3790680
  10.1934530  93.7327490  12.7474210  16.3964030  97.6960330  23.2717250
  15.5682660  97.7653420  22.7967380  16.9914510  98.2814640  22.8033080
  13.9179480  98.3045110  16.8006310  13.2991900  97.9664660  16.1532610
  13.9003930  97.6604870  17.5085500  13.3606040  94.4829650  24.2172120
  12.9477220  95.3083360  24.4712110  12.6281990  93.8974690  24.0248480
   5.4938830  97.2689550  19.0790790   5.0895830  96.5566800  18.5836690
   5.5801950  96.9242790  19.9678830   4.2067450  94.0432760  22.8589830
   4.7582040  94.1528100  22.0843080   4.7210960  94.4170360  23.5745060
  12.0944180  97.5431920  13.8079060  12.5337460  96.7054350  13.6616880
  12.8072600  98.1761320  13.8943200   3.8810180  97.5652120  26.4695170
   3.7417950  98.4374920  26.8382570   2.9991540  97.2224930  26.3243110
  15.6761320  88.7974730  12.1220100  15.3633980  88.8901560  13.0219170
  16.4373790  89.3755760  12.0717530   2.1943460  96.1634530  16.5797440
   2.0741060  96.8896620  15.9678710   1.8844350  95.3937440  16.1025350
  16.8862610  93.5346230  28.0994240  16.2706880  94.0425900  27.5709700
  16.5659030  92.6344560  28.0420180   4.6607120  89.5069600  19.9621110
   4.2175270  90.2879140  19.6305630   5.2192110  89.8299490  20.6692050
   8.9476930  92.3738120  25.5656430   8.4856300  92.5821140  26.3776370
   8.5455040  91.5597470  25.2627100  13.9481440  93.5947070  26.6953090
  13.0975030  93.2952820  27.0162160  13.7883230  93.8389080  25.7836910
  11.0431150  95.0948820  28.7951880  11.3684560  94.2612570  28.4554110
  11.8311480  95.6177340  28.9430210   7.7765940  89.1280300  14.8426940
   7.1520120  89.1240170  15.5680250   7.6896060  88.2611260  14.4462910
   6.6983020  90.0516930  21.8210710   6.9955350  90.9579760  21.7402730
   7.2468580  89.5635710  21.2070280   4.4521340  94.6303170  17.6902360
   4.2262260  94.4140340  18.5948980   3.6713870  95.0631630  17.3448330
  11.6819100  94.6366540  16.2893010  11.0827990  95.3602340  16.1056630
  12.2298710  94.5743320  15.5069460   6.8920550  95.5288750  28.3562630
   6.7964150  94.5883480  28.2063030   7.7352530  95.7503820  27.9610700
  10.2883970  93.2730080  18.3196290  10.6813540  93.5902280  17.5064980
  10.6500820  92.3941960  18.4340810   8.5976140  92.0237390  29.5793150
   7.9074460  91.8309590  30.2139240   9.3408440  92.3072030  30.1117450
  10.8739110  95.8635830  22.4147070  10.1420230  96.3722640  22.7637170
  10.4763450  95.0465810  22.1135850   7.3116500  92.5390030  20.8199560
   7.3152560  92.0979980  19.9704100   8.2067620  92.8607360  20.9271380
   3.1618880  92.4216520  19.7793770   2.8218930  92.8991750  20.5360820
   2.3996200  91.9681640  19.4194870   7.3736650  93.5402110  13.8106320
   7.4949470  93.4988590  14.7592140   6.9885160  94.4026260  13.6553050
  11.3365020  91.3169510  21.8270010  11.3537760  91.7678160  22.6711860
  11.0880600  90.4175150  22.0403450   6.3858150  95.8503250  13.2089620
   5.8175050  95.4021500  12.5825530   7.0947150  96.2096030  12.6754770
  14.7635770  88.7301690  27.6656390  15.0881540  87.9991350  28.1914370
  14.7992280  88.4115330  26.7637380   7.6124470  96.5991810  22.5664970
   7.9794600  96.1250380  23.3126310   7.4229530  97.4733380  22.9073310
   5.4023840  95.6400450  24.8849180   5.0980910  96.5192430  25.1099540
   6.3570300  95.7000240  24.9206620  10.1503550  90.2364760  15.4171810
   9.3368160  89.7377930  15.3417120   9.9565500  91.0763010  15.0008160
  12.8651940  94.6084410  13.7133970  13.7531560  94.9201640  13.5385310
  12.8357030  93.7356660  13.3214550   4.6600690  96.9387430  28.9160090
   4.3600830  97.0844610  28.0187910   5.4311930  96.3792720  28.8233480
  15.1366210  95.9196250  13.1813830  15.0529930  96.3510470  12.3310270
  15.8560400  96.3794600  13.6140650   7.1330430  97.8667660  16.7763420
   7.5893210  98.6772910  17.0023610   6.7818640  97.5490800  17.6081910
   3.0342210  88.2105310  17.2485940   2.9056840  88.2023210  18.1970860
   2.2104230  88.5488400  16.8976950  11.5274920  92.4618740  24.4594090
  11.8955740  91.6413950  24.7873660  10.6673120  92.5220630  24.8749740
  14.8936950  91.4175680  15.2681650  14.2650110  91.5221350  14.5539880
  14.3988870  91.6372460  16.0575530   6.8620980  93.6961630  16.6839530
   6.1537130  94.1647970  17.1253140   7.1465460  93.0383640  17.3184720
   8.4876910  95.1158330  24.6832060   8.9862160  95.5904150  25.3483910
   8.6299860  94.1921850  24.8902090  10.8936410  90.4212290  18.1235320
  10.7704190  90.4398420  17.1744830  11.8420970  90.4691230  18.2433720
   5.0656000  92.0046710  14.0590240   5.9146530  92.4416860  13.9930430
   4.6987270  92.3166970  14.8862300  15.6943770  91.3326290  25.5260450
  15.1917370  92.0731690  25.8654260  16.5100430  91.7210290  25.2097240
  13.9865780  96.5759470  18.9721810  13.0455920  96.5909700  19.1469500
  14.3009850  95.7895430  19.4182110   3.9647420  98.2579070  12.5325770
   4.7310690  98.1460430  13.0951200   4.0422110  97.5617040  11.8802540
   2.6594180  95.6904140  13.2158660   2.7397770  94.7431650  13.3276060
   3.5513930  96.0211020  13.3219320   2.2188060  95.6548650  29.3464900
   2.2593400  95.3562520  30.2550130   3.0733560  96.0556260  29.1872420
   5.9966450  98.2544200  14.5068410   6.4182870  98.0884070  15.3499800
   6.1217290  97.4444430  14.0123550   4.1593870  94.2340750  27.3139390
   3.6290330  93.7431700  26.6862730   4.8281940  94.6624950  26.7797320
   8.5094090  97.2781810  11.7545510   9.0299750  96.5630830  11.3886660
   9.1562490  97.9167680  12.0546020  13.5294100  96.0406370  29.0819730
  14.1114870  95.2858690  28.9940210  13.7055870  96.5713810  28.3051210
   4.6466170  91.2003120  27.3936680   4.5523040  90.5823870  26.6687550
   4.0663560  91.9269410  27.1666590   7.4127610  89.7576360  24.4264070
   6.9644910  89.7800620  23.5809620   6.7792810  89.3595380  25.0234370
  10.1551060  96.3846870  26.4314350  10.2747270  95.7888010  27.1709190
  11.0145060  96.4216560  26.0115650  12.4938960  96.9384060  25.0076860
  11.9674180  97.4626680  24.4042000  12.8370300  97.5711450  25.6386590
   4.8925350  94.3277430  11.4526570   4.6914410  93.4644790  11.8139910
   4.7217400  94.2410790  10.5148170   6.9219830  92.9268220  27.6890170
   7.5119520  92.6184070  28.3767990   6.1040070  92.4547970  27.8450070
  11.7413260  92.5434030  27.9223190  11.0528780  91.8815570  27.8573180
  12.4619280  92.0972300  28.3671650  12.3713660  89.1385660  13.9813450
  12.6515950  88.2953560  14.3372870  11.5979390  89.3708770  14.4952200
   3.6908150  91.4278050  11.4404450   3.9934050  91.4345480  10.5323600
   4.4302740  91.0775910  11.9372110   6.9093080  90.3712670  12.4260650
   6.5615080  89.6936660  11.8463100   7.1105850  89.9102180  13.2404040
  13.1989160  91.6941610  13.0443510  13.6174040  91.5072590  12.2040170
  12.8925220  90.8420660  13.3546440  16.6978890  96.6065750  16.7419310
  16.3222490  95.8393680  16.3100600  15.9682010  96.9888450  17.2294240
  16.0878510  95.7537270  26.3758830  15.8564600  95.5250020  25.4756780
  16.3483060  96.6736820  26.3303720  14.5266580  90.9793700  29.1538530
  15.4036760  90.9877100  29.5372530  14.5387420  90.2424540  28.5430880
  15.9729850  94.8323240  20.0426550  16.4967330  94.3385890  19.4116720
  16.5589270  94.9673600  20.7874120  16.1519570  94.9163110  23.5646100
  15.2022280  94.8826650  23.6791090  16.3332580  95.8263220  23.3295870
  15.4629820  94.0896590  15.9818960  15.9588940  93.8567460  16.7667840
  15.2645890  93.2508430  15.5656600  16.8916980  92.7257540  18.5156640
  16.7816260  92.5713580  19.4538910  17.6524570  92.1978480  18.2732050
  15.2382700  88.6651670  24.9739640  15.8754920  89.2785810  25.3398830
  15.3857590  88.7012330  24.0288870  17.7807250  90.5565460  11.7562780
  18.7056560  90.4246640  11.5481070  17.7583040  90.6358280  12.7099230
  17.8545740  91.3276120  14.3819490  17.0597240  91.2621240  14.9112400
  18.0589020  92.2626760  14.3704840   8.6087180  89.8177860  27.8814740
   8.5476070  90.4099690  28.6310150   9.5487560  89.7103820  27.7365000
  11.2461740  89.4747920  27.5207030  11.8602150  89.7927210  26.8588110
  11.7911300  88.9896510  28.1402890   1.7683000  88.1542180  27.6346090
   2.3165990  87.9730230  26.8712200   1.8338310  87.3636290  28.1702400
  11.9869780  88.0380060  23.8476320  11.1129620  88.3715170  23.6449250
  11.8780530  87.5653240  24.6728190  12.8941760  90.2450930  25.2318040
  12.5655120  89.4302690  24.8519770  13.8424060  90.2020740  25.1083730
   9.7344600  88.9549900  22.7869230   8.9516390  89.4295400  23.0665990
   9.4407530  88.0504730  22.6782410  14.2865670  89.6573000  20.8318320
  14.7273760  89.6018100  19.9839920  14.0173260  90.5731010  20.9028500
  16.1504240  89.2888240  18.8427140  16.0892640  88.3449460  18.6958160
  16.9296270  89.3968330  19.3880600   7.6198820  91.3736650  18.2985260
   6.8073330  90.9993540  17.9581140   8.1240460  90.6181730  18.6006450
  12.1223800  88.0379100  19.5368330  12.7253170  88.6099310  20.0116850
  11.3816790  88.6018540  19.3142230  15.2658400  88.4400660  14.8108610
  15.4609030  89.3384110  15.0776040  14.4788270  88.2087740  15.3041560
   3.4510160  89.7861430  13.8484920   3.9802920  88.9991230  13.7192870
   4.0838480  90.4652620  14.0820450   5.6448000  89.5236570  16.9030310
   5.0150740  88.8223880  17.0700440   5.1053140  90.2840700  16.6863470
   5.7703560  88.8020550  29.3382800   5.4887830  89.3054150  28.5743620
   6.1523260  88.0042300  28.9724930  12.3719020  88.2174130  29.9163270
  12.2584470  88.5368740  30.8114790  13.1888760  88.6186640  29.6200550
   9.4095210  98.0145620   2.1607280   8.6337310  97.5346060   2.4505850
  10.0608140  97.3351270   1.9863440   3.4261040  98.3265430   3.0383040
   2.5945920  98.0714140   3.4379550   4.0342020  98.3976200   3.7740960
   9.8809370  93.4973190   2.3946370  10.2574190  92.6245070   2.2820040
   9.7828880  93.8331890   1.5036810   5.8522110  94.8385190   2.1888990
   6.3600330  95.3366160   2.8294010   6.3835350  94.0620390   2.0128350
  17.9533040  93.0090380   5.8918340  17.2485210  93.3972090   5.3733450
  18.2190960  93.7040670   6.4939270   4.1358210  89.4783750   6.4552410
   4.1376650  89.9956140   5.6498310   3.3062520  89.0013930   6.4322340
  13.8994970  92.9324010   2.1002250  13.1950540  93.2208900   2.6805360
  14.2607130  93.7424120   1.7401810   3.8173540  91.1893710   4.4622860
   4.1590350  92.0335760   4.1676730   2.8789350  91.3377450   4.5788200
  16.9681890  92.3778800   2.4911460  16.0206800  92.4117780   2.6226890
  17.2931880  93.1917750   2.8760820  16.3964030  97.6960330   4.4973760
  15.5682660  97.7653420   4.0223890  16.9914510  98.2814640   4.0289590
  13.3606040  94.4829650   5.4428630  12.9477220  95.3083360   5.6968620
  12.6281990  93.8974690   5.2504990   4.2067450  94.0432760   4.0846340
   4.7582040  94.1528100   3.3099590   4.7210960  94.4170360   4.8001570
   3.8810180  97.5652120   7.6951680   3.7417950  98.4374920   8.0639080
   2.9991540  97.2224930   7.5499620  16.8862610  93.5346230   9.3250750
  16.2706880  94.0425900   8.7966210  16.5659030  92.6344560   9.2676690
   8.9476930  92.3738120   6.7912940   8.4856300  92.5821140   7.6032880
   8.5455040  91.5597470   6.4883610  13.9481440  93.5947070   7.9209600
  13.0975030  93.2952820   8.2418670  13.7883230  93.8389080   7.0093420
  11.0431150  95.0948820  10.0208390  11.3684560  94.2612570   9.6810620
  11.8311480  95.6177340  10.1686720   6.6983020  90.0516930   3.0467220
   6.9955350  90.9579760   2.9659240   7.2468580  89.5635710   2.4326790
   6.8920550  95.5288750   9.5819140   6.7964150  94.5883480   9.4319540
   7.7352530  95.7503820   9.1867210   8.5976140  92.0237390  10.8049660
   7.9074460  91.8309590  11.4395750   9.3408440  92.3072030  11.3373960
  10.8739110  95.8635830   3.6403580  10.1420230  96.3722640   3.9893680
  10.4763450  95.0465810   3.3392360  11.3365020  91.3169510   3.0526520
  11.3537760  91.7678160   3.8968370  11.0880600  90.4175150   3.2659960
  14.7635770  88.7301690   8.8912900  15.0881540  87.9991350   9.4170880
  14.7992280  88.4115330   7.9893890   7.6124470  96.5991810   3.7921480
   7.9794600  96.1250380   4.5382820   7.4229530  97.4733380   4.1329820
   5.4023840  95.6400450   6.1105690   5.0980910  96.5192430   6.3356050
   6.3570300  95.7000240   6.1463130   4.6600690  96.9387430  10.1416600
   4.3600830  97.0844610   9.2444420   5.4311930  96.3792720  10.0489990
  11.5274920  92.4618740   5.6850600  11.8955740  91.6413950   6.0130170
  10.6673120  92.5220630   6.1006250   8.4876910  95.1158330   5.9088570
   8.9862160  95.5904150   6.5740420   8.6299860  94.1921850   6.1158600
  15.6943770  91.3326290   6.7516960  15.1917370  92.0731690   7.0910770
  16.5100430  91.7210290   6.4353750   2.2188060  95.6548650  10.5721410
   2.2593400  95.3562520  11.4806640   3.0733560  96.0556260  10.4128930
   4.1593870  94.2340750   8.5395900   3.6290330  93.7431700   7.9119240
   4.8281940  94.6624950   8.0053830  13.5294100  96.0406370  10.3076240
  14.1114870  95.2858690  10.2196720  13.7055870  96.5713810   9.5307720
   4.6466170  91.2003120   8.6193190   4.5523040  90.5823870   7.8944060
   4.0663560  91.9269410   8.3923100   7.4127610  89.7576360   5.6520580
   6.9644910  89.7800620   4.8066130   6.7792810  89.3595380   6.2490880
  10.1551060  96.3846870   7.6570860  10.2747270  95.7888010   8.3965700
  11.0145060  96.4216560   7.2372160  12.4938960  96.9384060   6.2333370
  11.9674180  97.4626680   5.6298510  12.8370300  97.5711450   6.8643100
   6.9219830  92.9268220   8.9146680   7.5119520  92.6184070   9.6024500
   6.1040070  92.4547970   9.0706580  11.7413260  92.5434030   9.1479700
  11.0528780  91.8815570   9.0829690  12.4619280  92.0972300   9.5928160
  16.0878510  95.7537270   7.6015340  15.8564600  95.5250020   6.7013290
  16.3483060  96.6736820   7.5560230  14.5266580  90.9793700  10.3795040
  15.4036760  90.9877100  10.7629040  14.5387420  90.2424540   9.7687390
  16.1519570  94.9163110   4.7902610  15.2022280  94.8826650   4.9047600
  16.3332580  95.8263220   4.5552380  15.2382700  88.6651670   6.1996150
  15.8754920  89.2785810   6.5655340  15.3857590  88.7012330   5.2545380
   8.6087180  89.8177860   9.1071250   8.5476070  90.4099690   9.8566660
   9.5487560  89.7103820   8.9621510  11.2461740  89.4747920   8.7463540
  11.8602150  89.7927210   8.0844620  11.7911300  88.9896510   9.3659400
   1.7683000  88.1542180   8.8602600   2.3165990  87.9730230   8.0968710
   1.8338310  87.3636290   9.3958910  11.9869780  88.0380060   5.0732830
  11.1129620  88.3715170   4.8705760  11.8780530  87.5653240   5.8984700
  12.8941760  90.2450930   6.4574550  12.5655120  89.4302690   6.0776280
  13.8424060  90.2020740   6.3340240   9.7344600  88.9549900   4.0125740
   8.9516390  89.4295400   4.2922500   9.4407530  88.0504730   3.9038920
   5.7703560  88.8020550  10.5639310   5.4887830  89.3054150   9.8000130
   6.1523260  88.0042300  10.1981440  12.3719020  88.2174130  11.1419780
  12.2584470  88.5368740  12.0371300  13.1888760  88.6186640  10.8457060
  11.2777170  77.4623110  56.6028480  11.1971220  76.5477720  56.3320190
  10.8641590  77.9590180  55.8968190  13.4302640  83.6462320  57.2636880
  12.9684170  82.8749560  57.5924050  14.2428190  83.6728390  57.7689330
   9.6565950  85.9320330  56.8840870   9.0377390  86.3877830  56.3135310
  10.5117730  86.0871790  56.4830570   4.0114380  73.0955330  54.1794280
   4.1181130  73.9959060  54.4863040   3.1006740  73.0473300  53.8888930
  13.6633490  72.2180140  55.6505180  14.4843110  71.7276710  55.6930660
  13.6967570  72.8077800  56.4037020  10.5229300  80.8159570  54.2772780
   9.9046570  81.2809020  53.7135500  11.0352550  81.5087050  54.6942290
   7.5001430  69.9032490  57.1097920   7.8076410  69.3479380  56.3933420
   6.5702130  70.0376950  56.9270910  14.3461910  82.3416000  54.4895550
  14.2358240  81.3990330  54.6144970  14.3430160  82.7031640  55.3758310
   9.8882190  77.9681320  53.8458040   8.9611470  77.9018700  54.0746510
  10.0407010  78.9061450  53.7313280   9.8751270  74.2398320  50.8425200
   8.9354940  74.4012280  50.9277660  10.1934530  74.9584000  50.2961190
  13.9179480  79.5301620  54.3493290  13.2991900  79.1921170  53.7019590
  13.9003930  78.8861380  55.0572480   5.4938830  78.4946060  56.6277770
   5.0895830  77.7823310  56.1323670   5.5801950  78.1499300  57.5165810
  12.0944180  78.7688430  51.3566040  12.5337460  77.9310860  51.2103860
  12.8072600  79.4017830  51.4430180  10.2039560  83.7084500  55.3247280
  10.6435470  84.4508830  54.9102670  10.1426450  83.9511070  56.2486240
  15.6761320  70.0231240  49.6707080  15.3633980  70.1158070  50.5706150
  16.4373790  70.6012270  49.6204510   2.1943460  77.3891040  54.1284420
   2.0741060  78.1153130  53.5165690   1.8844350  76.6193950  53.6512330
  12.8709740  86.6953620  52.6810290  12.7110880  86.4056560  53.5792120
  12.7056450  85.9193750  52.1455520   5.3498120  86.4752150  54.4581910
   5.1740600  85.5587690  54.2449710   4.4953860  86.8339440  54.6979710
  12.5735870  84.2041180  51.2408290  11.8801030  84.2018470  50.5810570
  13.3158730  83.7800500  50.8102460  12.1385800  85.8303890  55.3156780
  12.5942750  85.0493270  55.6295400  12.4778320  86.5410710  55.8597960
   4.6607120  70.7326110  57.5108090   4.2175270  71.5135650  57.1792610
   5.2192110  71.0556000  58.2179030   7.7765940  70.3536810  52.3913920
   7.1520120  70.3496680  53.1167230   7.6896060  69.4867770  51.9949890
   4.4521340  75.8559680  55.2389340   4.2262260  75.6396850  56.1435960
   3.6713870  76.2888140  54.8935310  11.6819100  75.8623050  53.8379990
  11.0827990  76.5858850  53.6543610  12.2298710  75.7999830  53.0556440
  10.2883970  74.4986590  55.8683270  10.6813540  74.8158790  55.0551960
  10.6500820  73.6198470  55.9827790   7.3116500  73.7646540  58.3686540
   7.3152560  73.3236490  57.5191080   8.2067620  74.0863870  58.4758360
   3.1618880  73.6473030  57.3280750   2.8218930  74.1248260  58.0847800
   2.3996200  73.1938150  56.9681850   7.3736650  74.7658620  51.3593300
   7.4949470  74.7245100  52.3079120   6.9885160  75.6282770  51.2040030
   6.3858150  77.0759760  50.7576600   5.8175050  76.6278010  50.1312510
   7.0947150  77.4352540  50.2241750   3.9305630  81.0717950  53.0303010
   3.1567890  80.5315570  52.8701730   4.6600260  80.5524560  52.6920770
  10.1503550  71.4621270  52.9658790   9.3368160  70.9634440  52.8904100
   9.9565500  72.3019520  52.5495140  12.8651940  75.8340920  51.2620950
  13.7531560  76.1458150  51.0872290  12.8357030  74.9613170  50.8701530
   3.9743030  80.7398330  56.6681820   4.4921700  79.9366590  56.6138710
   3.5227050  80.6777470  57.5098650   8.8612530  82.0064610  51.9409120
   9.2028230  82.7506840  51.4452440   8.0325240  82.3195730  52.3033950
  15.1366210  77.1452760  50.7300810  15.0529930  77.5766980  49.8797250
  15.8560400  77.6051110  51.1627630  16.1653460  83.9995020  53.4582940
  15.5229620  83.3450640  53.7326660  15.7784120  84.4050110  52.6823610
  11.7439940  81.3280450  57.3054630  12.0963760  80.7308580  56.6456000
  10.8602270  81.0024680  57.4762880   7.8303220  82.0878140  54.7125040
   8.5174350  82.6347350  55.0932630   7.0435640  82.6318870  54.7474650
   7.1330430  79.0924170  54.3250400   7.5893210  79.9029420  54.5510590
   6.7818640  78.7747310  55.1568890   3.0342210  69.4361820  54.7972920
   2.9056840  69.4279720  55.7457840   2.2104230  69.7744910  54.4463930
  14.5550840  82.8911480  49.9959290  14.3288420  82.1741920  50.5883930
  14.1647040  82.6423920  49.1581040  14.1367090  80.8083420  51.6573450
  13.8488790  81.2696110  52.4451330  14.9319260  80.3481190  51.9257670
   6.3535490  84.3009540  51.5877420   6.3445590  85.0339230  50.9721930
   5.4333850  84.0541120  51.6804380  14.8936950  72.6432190  52.8168630
  14.2650110  72.7477860  52.1026860  14.3988870  72.8628970  53.6062510
   9.3395090  84.3637780  50.2502610   9.4407070  84.1601770  49.3204590
   8.4396830  84.1096060  50.4550390   6.8620980  74.9218140  54.2326510
   6.1537130  75.3904480  54.6740120   7.1465460  74.2640150  54.8671700
  10.8936410  71.6468800  55.6722300  10.7704190  71.6654930  54.7231810
  11.8420970  71.6947740  55.7920700   7.9813200  86.8824100  54.9450280
   8.2354700  86.8445490  54.0229650   7.0325680  86.7557430  54.9378530
   5.0656000  73.2303220  51.6077220   5.9146530  73.6673370  51.5417410
   4.6987270  73.5423480  52.4349280  13.9865780  77.8015980  56.5208790
  13.0455920  77.8166210  56.6956480  14.3009850  77.0151940  56.9669090
   3.9647420  79.4835580  50.0812750   4.7310690  79.3716940  50.6438180
   4.0422110  78.7873550  49.4289520   2.6594180  76.9160650  50.7645640
   2.7397770  75.9688160  50.8763040   3.5513930  77.2467530  50.8706300
   3.4608890  87.0656040  57.8680180   4.1971370  86.5171500  58.1388750
   3.8449810  87.9312050  57.7286170   6.5711200  86.2386350  49.6905750
   7.3639810  86.5275180  49.2387540   6.0515550  85.8078520  49.0118230
  15.6241370  85.4656480  51.1142490  15.3382880  85.0521620  50.2996670
  15.4260920  86.3944190  50.9943010   7.0888600  81.4589760  49.5548100
   6.9839240  80.8442110  50.2809480   6.9212820  80.9355650  48.7711110
  10.3291330  80.5209790  50.1590090   9.7801430  80.9679090  50.8032830
  10.9510590  80.0159040  50.6827760   5.9966450  79.4800710  52.0555390
   6.4182870  79.3140580  52.8986780   6.1217290  78.6700940  51.5610530
   8.5094090  78.5038320  49.3032490   9.0299750  77.7887340  48.9373640
   9.1562490  79.1424190  49.6033000   4.8925350  75.5533940  49.0013550
   4.6914410  74.6901300  49.3626890   4.7217400  75.4667300  48.0635150
  12.3713660  70.3642170  51.5300430  12.6515950  69.5210070  51.8859850
  11.5979390  70.5965280  52.0439180   3.6908150  72.6534560  48.9891430
   3.9934050  72.6601990  48.0810580   4.4302740  72.3032420  49.4859090
   6.9093080  71.5969180  49.9747630   6.5615080  70.9193170  49.3950080
   7.1105850  71.1358690  50.7891020   9.0742120  86.5849930  51.5934230
   9.9692910  86.9234900  51.6152990   9.1059750  85.8629340  50.9658510
   2.7138280  81.9576980  49.8221230   3.1513150  82.5006650  50.4778810
   3.1986010  81.1323930  49.8317570   4.5246000  83.0775020  54.9343460
   4.2241540  82.9539990  55.8347370   4.4183490  82.2183610  54.5259190
  17.2937920  82.8571420  49.6370140  16.4630880  82.9248070  50.1077370
  17.4709750  83.7475540  49.3337000  16.7494380  79.6018900  52.1404340
  17.5113290  80.1715550  52.2464030  16.7648750  79.0346100  52.9112650
  17.7554350  80.4569000  56.9846270  18.1263180  79.6736320  56.5782240
  18.3956280  81.1458100  56.8063570  16.8013550  79.8953270  49.2976860
  17.0762390  80.8032150  49.1696080  16.6124290  79.8315800  50.2338850
  13.1989160  72.9198120  50.5930490  13.6174040  72.7329100  49.7527150
  12.8925220  72.0677170  50.9033420  16.6978890  77.8322260  54.2906290
  16.3222490  77.0650190  53.8587580  15.9682010  78.2144960  54.7781220
  15.9729850  76.0579750  57.5913530  16.4967330  75.5642400  56.9603700
  16.5589270  76.1930110  58.3361100  15.4629820  75.3153100  53.5305940
  15.9588940  75.0823970  54.3154820  15.2645890  74.4764940  53.1143580
  16.8916980  73.9514050  56.0643620  16.7816260  73.7970090  57.0025890
  17.6524570  73.4234990  55.8219030  17.7807250  71.7821970  49.3049760
  18.7056560  71.6503150  49.0968050  17.7583040  71.8614790  50.2586210
  17.8545740  72.5532630  51.9306470  17.0597240  72.4877750  52.4599380
  18.0589020  73.4883270  51.9191820  14.7964160  86.5924180  55.9244860
  15.3923230  86.2708750  55.2479280  15.0542310  86.1196000  56.7158130
  14.2865670  70.8829510  58.3805300  14.7273760  70.8274610  57.5326900
  14.0173260  71.7987520  58.4515480  16.1504240  70.5144750  56.3914120
  16.0892640  69.5705970  56.2445140  16.9296270  70.6224840  56.9367580
   7.6198820  72.5993160  55.8472240   6.8073330  72.2250050  55.5068120
   8.1240460  71.8438240  56.1493430  12.1223800  69.2635610  57.0855310
  12.7253170  69.8355820  57.5603830  11.3816790  69.8275050  56.8629210
  15.2658400  69.6657170  52.3595590  15.4609030  70.5640620  52.6263020
  14.4788270  69.4344250  52.8528540   3.4510160  71.0117940  51.3971900
   3.9802920  70.2247740  51.2679850   4.0838480  71.6909130  51.6307430
   5.6448000  70.7493080  54.4517290   5.0150740  70.0480390  54.6187420
   5.1053140  71.5097210  54.2350450  16.8185010  86.9057880  54.1202150
  16.9937200  86.2195620  53.4763070  16.1206580  87.4304930  53.7278820
   4.6612660  87.2952720  51.6737460   5.3931480  87.0112000  51.1261350
   4.9206330  87.0566000  52.5636840   3.8227450  83.4117450  51.6783790
   3.1936330  83.8802550  52.2269620   3.9375280  82.5666670  52.1129980
  11.2777170  77.4623110  37.8284990  11.1971220  76.5477720  37.5576700
  10.8641590  77.9590180  37.1224700   9.4095210  79.2402130  39.7094260
   8.6337310  78.7602570  39.9992830  10.0608140  78.5607780  39.5350420
   3.4261040  79.5521940  40.5870020   2.5945920  79.2970650  40.9866530
   4.0342020  79.6232710  41.3227940  13.4302640  83.6462320  38.4893390
  12.9684170  82.8749560  38.8180560  14.2428190  83.6728390  38.9945840
   3.4062300  83.5862030  40.7828040   3.7090340  82.6959770  40.6038260
   4.1505890  84.1432250  40.5550290   9.6565950  85.9320330  38.1097380
   9.0377390  86.3877830  37.5391820  10.5117730  86.0871790  37.7087080
   8.8504200  81.9159320  39.7164420   8.7812480  80.9749260  39.5553550
   9.6124060  82.0060730  40.2886990   9.8809370  74.7229700  39.9433350
  10.2574190  73.8501580  39.8307020   9.7828880  75.0588400  39.0523790
   4.0114380  73.0955330  35.4050790   4.1181130  73.9959060  35.7119550
   3.1006740  73.0473300  35.1145440  13.6633490  72.2180140  36.8761690
  14.4843110  71.7276710  36.9187170  13.6967570  72.8077800  37.6293530
   5.8522110  76.0641700  39.7375970   6.3600330  76.5622670  40.3780990
   6.3835350  75.2876900  39.5615330  17.9533040  74.2346890  43.4405320
  17.2485210  74.6228600  42.9220430  18.2190960  74.9297180  44.0426250
   4.1358210  70.7040260  44.0039390   4.1376650  71.2212650  43.1985290
   3.3062520  70.2270440  43.9809320  10.5229300  80.8159570  35.5029290
   9.9046570  81.2809020  34.9392010  11.0352550  81.5087050  35.9198800
   5.3861060  80.3435440  42.1812890   5.0530440  80.9704360  42.8233960
   5.5627740  80.8697320  41.4014560  13.8994970  74.1580520  39.6489230
  13.1950540  74.4465410  40.2292340  14.2607130  74.9680630  39.2888790
   3.8173540  72.4150220  42.0109840   4.1590350  73.2592270  41.7163710
   2.8789350  72.5633960  42.1275180   4.5980160  82.3116240  43.9962070
   5.2154160  82.9867320  43.7146520   3.7373280  82.7204220  43.9049570
  15.5157750  83.7755650  41.9116710  14.8321270  84.4454760  41.9033380
  16.0552040  83.9736300  41.1461570  16.9681890  73.6035310  40.0398440
  16.0206800  73.6374290  40.1713870  17.2931880  74.4174260  40.4247800
   7.5001430  69.9032490  38.3354430   7.8076410  69.3479380  37.6189930
   6.5702130  70.0376950  38.1527420  13.0516490  85.6199780  40.6261890
  13.0643650  85.2162070  39.7584150  12.4991710  86.3947070  40.5223320
  14.3461910  82.3416000  35.7152060  14.2358240  81.3990330  35.8401480
  14.3430160  82.7031640  36.6014820  12.4501930  80.5229620  41.9544500
  12.8670720  80.3089730  41.1197960  13.1741750  80.7802410  42.5253120
   9.8882190  77.9681320  35.0714550   8.9611470  77.9018700  35.3003020
  10.0407010  78.9061450  34.9569790   9.8751270  74.2398320  32.0681710
   8.9354940  74.4012280  32.1534170  10.1934530  74.9584000  31.5217700
  16.3964030  78.9216840  42.0460740  15.5682660  78.9909930  41.5710870
  16.9914510  79.5071150  41.5776570  13.9179480  79.5301620  35.5749800
  13.2991900  79.1921170  34.9276100  13.9003930  78.8861380  36.2828990
  13.3606040  75.7086160  42.9915610  12.9477220  76.5339870  43.2455600
  12.6281990  75.1231200  42.7991970   5.4938830  78.4946060  37.8534280
   5.0895830  77.7823310  37.3580180   5.5801950  78.1499300  38.7422320
   5.9620530  82.1813620  40.0173490   5.6648820  81.5759090  39.3381270
   6.9120350  82.2190930  39.9062850   4.2067450  75.2689270  41.6333320
   4.7582040  75.3784610  40.8586570   4.7210960  75.6426870  42.3488550
  14.0506140  85.7545490  43.6796590  13.5736700  86.5617680  43.4869200
  13.3667930  85.1023820  43.8322800   5.0538960  81.9195310  46.6681290
   4.1567490  82.1435280  46.9154690   5.0791830  82.0430250  45.7192690
  12.0944180  78.7688430  32.5822550  12.5337460  77.9310860  32.4360370
  12.8072600  79.4017830  32.6686690   3.8810180  78.7908630  45.2438660
   3.7417950  79.6631430  45.6126060   2.9991540  78.4481440  45.0986600
  10.2039560  83.7084500  36.5503790  10.6435470  84.4508830  36.1359180
  10.1426450  83.9511070  37.4742750   5.6790530  84.7330330  47.4523810
   5.6505960  85.1373280  46.5852240   5.5155500  83.8040690  47.2895410
  15.6761320  70.0231240  30.8963590  15.3633980  70.1158070  31.7962660
  16.4373790  70.6012270  30.8461020   2.1943460  77.3891040  35.3540930
   2.0741060  78.1153130  34.7422200   1.8844350  76.6193950  34.8768840
  17.6305350  85.5157430  48.7487980  18.1065070  85.9940320  49.4277060
  18.2512510  85.4474920  48.0233480  17.0338600  82.7070280  45.9087990
  17.1601660  82.4682160  44.9905170  17.0759980  81.8754820  46.3810070
  10.8955340  86.4098280  44.4782800  11.4100010  86.3206290  45.2805230
  10.0524420  86.7557980  44.7710710  12.8709740  86.6953620  33.9066800
  12.7110880  86.4056560  34.8048630  12.7056450  85.9193750  33.3712030
   5.3498120  86.4752150  35.6838420   5.1740600  85.5587690  35.4706220
   4.4953860  86.8339440  35.9236220  12.5735870  84.2041180  32.4664800
  11.8801030  84.2018470  31.8067080  13.3158730  83.7800500  32.0358970
  12.1385800  85.8303890  36.5413290  12.5942750  85.0493270  36.8551910
  12.4778320  86.5410710  37.0854470  16.8862610  74.7602740  46.8737730
  16.2706880  75.2682410  46.3453190  16.5659030  73.8601070  46.8163670
   4.6607120  70.7326110  38.7364600   4.2175270  71.5135650  38.4049120
   5.2192110  71.0556000  39.4435540   8.9476930  73.5994630  44.3399920
   8.4856300  73.8077650  45.1519860   8.5455040  72.7853980  44.0370590
  13.9481440  74.8203580  45.4696580  13.0975030  74.5209330  45.7905650
  13.7883230  75.0645590  44.5580400  11.0431150  76.3205330  47.5695370
  11.3684560  75.4869080  47.2297600  11.8311480  76.8433850  47.7173700
   7.7765940  70.3536810  33.6170430   7.1520120  70.3496680  34.3423740
   7.6896060  69.4867770  33.2206400   6.6983020  71.2773440  40.5954200
   6.9955350  72.1836270  40.5146220   7.2468580  70.7892220  39.9813770
   4.4521340  75.8559680  36.4645850   4.2262260  75.6396850  37.3692470
   3.6713870  76.2888140  36.1191820  11.6819100  75.8623050  35.0636500
  11.0827990  76.5858850  34.8800120  12.2298710  75.7999830  34.2812950
   6.8920550  76.7545260  47.1306120   6.7964150  75.8139990  46.9806520
   7.7352530  76.9760330  46.7354190  10.2883970  74.4986590  37.0939780
  10.6813540  74.8158790  36.2808470  10.6500820  73.6198470  37.2084300
   8.5976140  73.2493900  48.3536640   7.9074460  73.0566100  48.9882730
   9.3408440  73.5328540  48.8860940  10.8739110  77.0892340  41.1890560
  10.1420230  77.5979150  41.5380660  10.4763450  76.2722320  40.8879340
   7.3116500  73.7646540  39.5943050   7.3152560  73.3236490  38.7447590
   8.2067620  74.0863870  39.7014870   3.1618880  73.6473030  38.5537260
   2.8218930  74.1248260  39.3104310   2.3996200  73.1938150  38.1938360
   7.3736650  74.7658620  32.5849810   7.4949470  74.7245100  33.5335630
   6.9885160  75.6282770  32.4296540  11.3365020  72.5426020  40.6013500
  11.3537760  72.9934670  41.4455350  11.0880600  71.6431660  40.8146940
   6.3858150  77.0759760  31.9833110   5.8175050  76.6278010  31.3569020
   7.0947150  77.4352540  31.4498260  14.7635770  69.9558200  46.4399880
  15.0881540  69.2247860  46.9657860  14.7992280  69.6371840  45.5380870
   7.6124470  77.8248320  41.3408460   7.9794600  77.3506890  42.0869800
   7.4229530  78.6989890  41.6816800   5.4023840  76.8656960  43.6592670
   5.0980910  77.7448940  43.8843030   6.3570300  76.9256750  43.6950110
   3.9305630  81.0717950  34.2559520   3.1567890  80.5315570  34.0958240
   4.6600260  80.5524560  33.9177280  14.6893610  80.0683310  40.0485910
  15.4092730  80.5638600  39.6582020  14.4875430  79.3901200  39.4039780
  10.1503550  71.4621270  34.1915300   9.3368160  70.9634440  34.1160610
   9.9565500  72.3019520  33.7751650  10.0712410  80.1392370  45.9354910
  10.0049720  79.2188040  45.6812500   9.4417550  80.2367810  46.6499550
  12.8651940  75.8340920  32.4877460  13.7531560  76.1458150  32.3128800
  12.8357030  74.9613170  32.0958040   3.9743030  80.7398330  37.8938330
   4.4921700  79.9366590  37.8395220   3.5227050  80.6777470  38.7355160
   8.8612530  82.0064610  33.1665630   9.2028230  82.7506840  32.6708950
   8.0325240  82.3195730  33.5290460   4.6600690  78.1643940  47.6903580
   4.3600830  78.3101120  46.7931400   5.4311930  77.6049230  47.5976970
  10.0029140  82.9612940  45.6858710  10.0173680  82.0293900  45.4677620
   9.2954240  83.0472700  46.3248480  15.1366210  77.1452760  31.9557320
  15.0529930  77.5766980  31.1053760  15.8560400  77.6051110  32.3884140
  16.2140350  79.6020280  45.0327290  15.4888540  80.1949060  44.8356680
  16.7415810  79.5943820  44.2340660  16.1653460  83.9995020  34.6839450
  15.5229620  83.3450640  34.9583170  15.7784120  84.4050110  33.9080120
  11.7439940  81.3280450  38.5311140  12.0963760  80.7308580  37.8712510
  10.8602270  81.0024680  38.7019390   7.8303220  82.0878140  35.9381550
   8.5174350  82.6347350  36.3189140   7.0435640  82.6318870  35.9731160
   7.1330430  79.0924170  35.5506910   7.5893210  79.9029420  35.7767100
   6.7818640  78.7747310  36.3825400   9.4363040  84.6030510  42.7799210
  10.0805260  84.8089890  43.4572630   9.7992480  83.8418910  42.3270060
   3.0342210  69.4361820  36.0229430   2.9056840  69.4279720  36.9714350
   2.2104230  69.7744910  35.6720440  10.7095120  82.6062860  41.4976660
  11.3517350  81.9056020  41.6108830  11.2344470  83.3861300  41.3173550
  14.5550840  82.8911480  31.2215800  14.3288420  82.1741920  31.8140440
  14.1647040  82.6423920  30.3837550  12.4832740  83.4057760  44.7012720
  12.8188980  83.9924450  45.3790640  11.5633080  83.2750470  44.9310510
  14.1367090  80.8083420  32.8829960  13.8488790  81.2696110  33.6707840
  14.9319260  80.3481190  33.1514180   8.3121320  83.4549090  47.8700780
   7.9918190  82.7358330  48.4146470   7.6379680  84.1304160  47.9436840
   6.3535490  84.3009540  32.8133930   6.3445590  85.0339230  32.1978440
   5.4333850  84.0541120  32.9060890  11.5274920  73.6875250  43.2337580
  11.8955740  72.8670460  43.5617150  10.6673120  73.7477140  43.6493230
  14.8936950  72.6432190  34.0425140  14.2650110  72.7477860  33.3283370
  14.3988870  72.8628970  34.8319020   9.3395090  84.3637780  31.4759120
   9.4407070  84.1601770  30.5461100   8.4396830  84.1096060  31.6806900
   6.8620980  74.9218140  35.4583020   6.1537130  75.3904480  35.8996630
   7.1465460  74.2640150  36.0928210   8.4876910  76.3414840  43.4575550
   8.9862160  76.8160660  44.1227400   8.6299860  75.4178360  43.6645580
  10.8936410  71.6468800  36.8978810  10.7704190  71.6654930  35.9488320
  11.8420970  71.6947740  37.0177210   7.9813200  86.8824100  36.1706790
   8.2354700  86.8445490  35.2486160   7.0325680  86.7557430  36.1635040
   5.0656000  73.2303220  32.8333730   5.9146530  73.6673370  32.7673920
   4.6987270  73.5423480  33.6605790  15.6943770  72.5582800  44.3003940
  15.1917370  73.2988200  44.6397750  16.5100430  72.9466800  43.9840730
  13.9865780  77.8015980  37.7465300  13.0455920  77.8166210  37.9212990
  14.3009850  77.0151940  38.1925600   3.9647420  79.4835580  31.3069260
   4.7310690  79.3716940  31.8694690   4.0422110  78.7873550  30.6546030
   2.6594180  76.9160650  31.9902150   2.7397770  75.9688160  32.1019550
   3.5513930  77.2467530  32.0962810  15.9891360  84.9724830  39.4219560
  16.1138780  85.7956000  39.8943370  16.8556920  84.7615560  39.0743710
   3.4608890  87.0656040  39.0936690   4.1971370  86.5171500  39.3645260
   3.8449810  87.9312050  38.9542680   2.4667170  86.2502110  48.2822270
   3.2679900  86.5714160  48.6957670   1.9518990  85.8897690  49.0042180
   6.5711200  86.2386350  30.9162260   7.3639810  86.5275180  30.4644050
   6.0515550  85.8078520  30.2374740  11.3031800  82.3581980  48.2297680
  10.6969960  82.3813580  47.4893430  10.9985910  81.6265020  48.7664930
  12.7332170  86.0862270  46.8407090  13.6853920  86.0020290  46.7907330
  12.5860390  86.7503980  47.5140880  15.6241370  85.4656480  32.3399000
  15.3382880  85.0521620  31.5253180  15.4260920  86.3944190  32.2199520
   7.0888600  81.4589760  30.7804610   6.9839240  80.8442110  31.5065990
   6.9212820  80.9355650  29.9967620   7.2402920  80.1446560  46.7593840
   6.4748590  80.7131560  46.6748510   7.4218880  79.8522770  45.8662070
  10.3291330  80.5209790  31.3846600   9.7801430  80.9679090  32.0289340
  10.9510590  80.0159040  31.9084270  14.3826270  81.8751890  47.3168860
  15.1235740  82.2127650  46.8136320  13.6198950  82.0443950  46.7638630
   2.2188060  76.8805160  48.1208390   2.2593400  76.5819030  49.0293620
   3.0733560  77.2812770  47.9615910   5.9966450  79.4800710  33.2811900
   6.4182870  79.3140580  34.1243290   6.1217290  78.6700940  32.7867040
   4.1593870  75.4597260  46.0882880   3.6290330  74.9688210  45.4606220
   4.8281940  75.8881460  45.5540810   8.5094090  78.5038320  30.5289000
   9.0299750  77.7887340  30.1630150   9.1562490  79.1424190  30.8289510
  13.0571930  79.9266720  45.8524070  13.4712950  80.0811800  46.7014490
  12.1222930  80.0521940  46.0149850  13.5294100  77.2662880  47.8563220
  14.1114870  76.5115200  47.7683700  13.7055870  77.7970320  47.0794700
   4.6466170  72.4259630  46.1680170   4.5523040  71.8080380  45.4431040
   4.0663560  73.1525920  45.9410080   7.4127610  70.9832870  43.2007560
   6.9644910  71.0057130  42.3553110   6.7792810  70.5851890  43.7977860
   7.8187160  79.8787200  43.8220000   8.2375270  80.7219930  43.6496240
   6.8995790  80.0159240  43.5926780  10.1551060  77.6103380  45.2057840
  10.2747270  77.0144520  45.9452680  11.0145060  77.6473070  44.7859140
  12.4938960  78.1640570  43.7820350  11.9674180  78.6883190  43.1785490
  12.8370300  78.7967960  44.4130080   4.8925350  75.5533940  30.2270060
   4.6914410  74.6901300  30.5883400   4.7217400  75.4667300  29.2891660
   5.6694580  86.1840210  44.9377730   5.1315670  86.9086270  44.6186430
   5.9228540  85.7070550  44.1475070   6.9219830  74.1524730  46.4633660
   7.5119520  73.8440580  47.1511480   6.1040070  73.6804480  46.6193560
  11.7413260  73.7690540  46.6966680  11.0528780  73.1072080  46.6316670
  12.4619280  73.3228810  47.1415140  12.3713660  70.3642170  32.7556940
  12.6515950  69.5210070  33.1116360  11.5979390  70.5965280  33.2695690
   3.6908150  72.6534560  30.2147940   3.9934050  72.6601990  29.3067090
   4.4302740  72.3032420  30.7115600   8.5256790  87.4191420  45.1964380
   8.4515490  88.3226560  45.5036750   7.6235630  87.1003320  45.1686450
   6.9093080  71.5969180  31.2004140   6.5615080  70.9193170  30.6206590
   7.1105850  71.1358690  32.0147530   9.0742120  86.5849930  32.8190740
   9.9692910  86.9234900  32.8409500   9.1059750  85.8629340  32.1915020
   2.7138280  81.9576980  31.0477740   3.1513150  82.5006650  31.7035320
   3.1986010  81.1323930  31.0574080   4.5246000  83.0775020  36.1599970
   4.2241540  82.9539990  37.0603880   4.4183490  82.2183610  35.7515700
  16.0536470  85.1153600  45.5256940  15.4538460  85.1746160  44.7820860
  16.1830370  84.1758580  45.6553790  17.2937920  82.8571420  30.8626650
  16.4630880  82.9248070  31.3333880  17.4709750  83.7475540  30.5593510
  16.7494380  79.6018900  33.3660850  17.5113290  80.1715550  33.4720540
  16.7648750  79.0346100  34.1369160  17.7554350  80.4569000  38.2102780
  18.1263180  79.6736320  37.8038750  18.3956280  81.1458100  38.0320080
  14.7388110  81.8405580  43.6233100  13.9247950  82.2702740  43.8858890
  15.1462310  82.4523990  43.0102150  16.8013550  79.8953270  30.5233370
  17.0762390  80.8032150  30.3952590  16.6124290  79.8315800  31.4595360
  13.1989160  72.9198120  31.8187000  13.6174040  72.7329100  30.9783660
  12.8925220  72.0677170  32.1289930  16.6978890  77.8322260  35.5162800
  16.3222490  77.0650190  35.0844090  15.9682010  78.2144960  36.0037730
  16.0878510  76.9793780  45.1502320  15.8564600  76.7506530  44.2500270
  16.3483060  77.8993330  45.1047210  14.5266580  72.2050210  47.9282020
  15.4036760  72.2133610  48.3116020  14.5387420  71.4681050  47.3174370
  15.9729850  76.0579750  38.8170040  16.4967330  75.5642400  38.1860210
  16.5589270  76.1930110  39.5617610  16.1519570  76.1419620  42.3389590
  15.2022280  76.1083160  42.4534580  16.3332580  77.0519730  42.1039360
  15.4629820  75.3153100  34.7562450  15.9588940  75.0823970  35.5411330
  15.2645890  74.4764940  34.3400090  16.8916980  73.9514050  37.2900130
  16.7816260  73.7970090  38.2282400  17.6524570  73.4234990  37.0475540
  15.2382700  69.8908180  43.7483130  15.8754920  70.5042320  44.1142320
  15.3857590  69.9268840  42.8032360  17.7807250  71.7821970  30.5306270
  18.7056560  71.6503150  30.3224560  17.7583040  71.8614790  31.4842720
  17.8545740  72.5532630  33.1562980  17.0597240  72.4877750  33.6855890
  18.0589020  73.4883270  33.1448330  14.7964160  86.5924180  37.1501370
  15.3923230  86.2708750  36.4735790  15.0542310  86.1196000  37.9414640
   2.7026730  83.0242090  47.2992000   2.6596360  82.6535000  48.1806460
   2.8337740  83.9619660  47.4393820   6.4032760  84.5801680  42.9001720
   6.1624120  84.8476240  42.0132240   7.3435400  84.7507410  42.9552580
   8.6087180  71.0434370  46.6558230   8.5476070  71.6356200  47.4053640
   9.5487560  70.9360330  46.5108490  11.2461740  70.7004430  46.2950520
  11.8602150  71.0183720  45.6331600  11.7911300  70.2153020  46.9146380
  17.6636920  86.5996060  43.7012360  17.1695200  86.9964930  42.9839490
  17.0550210  85.9745270  44.0949640   1.7683000  69.3798690  46.4089580
   2.3165990  69.1986740  45.6455690   1.8338310  68.5892800  46.9445890
   2.5414760  85.9704340  44.4189780   1.9475080  85.8389040  45.1579820
   2.5338600  85.1342480  43.9531880  11.9869780  69.2636570  42.6219810
  11.1129620  69.5971680  42.4192740  11.8780530  68.7909750  43.4471680
  12.8941760  71.4707440  44.0061530  12.5655120  70.6559200  43.6263260
  13.8424060  71.4277250  43.8827220  15.3476370  87.2419480  40.9799100
  14.8879340  87.9935290  40.6057120  14.7188830  86.5225950  40.9213900
   5.7772090  85.5507720  40.1547230   6.2937110  84.9395080  39.6295490
   6.4269470  86.0536500  40.6458240   8.5167590  86.4416210  40.9816210
   8.8045400  86.1870510  40.1049220   9.0290810  85.8893570  41.5721780
   9.7344600  70.1806410  41.5612720   8.9516390  70.6551910  41.8409480
   9.4407530  69.2761240  41.4525900  14.2865670  70.8829510  39.6061810
  14.7273760  70.8274610  38.7583410  14.0173260  71.7987520  39.6771990
  16.1504240  70.5144750  37.6170630  16.0892640  69.5705970  37.4701650
  16.9296270  70.6224840  38.1624090   7.6198820  72.5993160  37.0728750
   6.8073330  72.2250050  36.7324630   8.1240460  71.8438240  37.3749940
  12.1223800  69.2635610  38.3111820  12.7253170  69.8355820  38.7860340
  11.3816790  69.8275050  38.0885720  15.2658400  69.6657170  33.5852100
  15.4609030  70.5640620  33.8519530  14.4788270  69.4344250  34.0785050
   3.4510160  71.0117940  32.6228410   3.9802920  70.2247740  32.4936360
   4.0838480  71.6909130  32.8563940   5.6448000  70.7493080  35.6773800
   5.0150740  70.0480390  35.8443930   5.1053140  71.5097210  35.4606960
   8.5839950  87.3632310  48.3484410   9.5107260  87.1276580  48.3920370
   8.5690380  88.1904310  47.8670440  16.8185010  86.9057880  35.3458660
  16.9937200  86.2195620  34.7019580  16.1206580  87.4304930  34.9535330
   5.7703560  70.0277060  48.1126290   5.4887830  70.5310660  47.3487110
   6.1523260  69.2298810  47.7468420   4.6612660  87.2952720  32.8993970
   5.3931480  87.0112000  32.3517860   4.9206330  87.0566000  33.7893350
   3.8227450  83.4117450  32.9040300   3.1936330  83.8802550  33.4526130
   3.9375280  82.5666670  33.3386490  12.3719020  69.4430640  48.6906760
  12.2584470  69.7625250  49.5858280  13.1888760  69.8443150  48.3944040
  15.1517510  86.5902170  48.1725450  15.9442830  86.0951400  47.9651410
  15.4450660  87.2692310  48.7801060  11.2777170  77.4623110  19.0541500
  11.1971220  76.5477720  18.7833210  10.8641590  77.9590180  18.3481210
   9.4095210  79.2402130  20.9350770   8.6337310  78.7602570  21.2249340
  10.0608140  78.5607780  20.7606930   3.4261040  79.5521940  21.8126530
   2.5945920  79.2970650  22.2123040   4.0342020  79.6232710  22.5484450
  13.4302640  83.6462320  19.7149900  12.9684170  82.8749560  20.0437070
  14.2428190  83.6728390  20.2202350   3.4062300  83.5862030  22.0084550
   3.7090340  82.6959770  21.8294770   4.1505890  84.1432250  21.7806800
   9.6565950  85.9320330  19.3353890   9.0377390  86.3877830  18.7648330
  10.5117730  86.0871790  18.9343590   8.8504200  81.9159320  20.9420930
   8.7812480  80.9749260  20.7810060   9.6124060  82.0060730  21.5143500
   9.8809370  74.7229700  21.1689860  10.2574190  73.8501580  21.0563530
   9.7828880  75.0588400  20.2780300   4.0114380  73.0955330  16.6307300
   4.1181130  73.9959060  16.9376060   3.1006740  73.0473300  16.3401950
  13.6633490  72.2180140  18.1018200  14.4843110  71.7276710  18.1443680
  13.6967570  72.8077800  18.8550040   5.8522110  76.0641700  20.9632480
   6.3600330  76.5622670  21.6037500   6.3835350  75.2876900  20.7871840
  17.9533040  74.2346890  24.6661830  17.2485210  74.6228600  24.1476940
  18.2190960  74.9297180  25.2682760   4.1358210  70.7040260  25.2295900
   4.1376650  71.2212650  24.4241800   3.3062520  70.2270440  25.2065830
  10.5229300  80.8159570  16.7285800   9.9046570  81.2809020  16.1648520
  11.0352550  81.5087050  17.1455310   5.3861060  80.3435440  23.4069400
   5.0530440  80.9704360  24.0490470   5.5627740  80.8697320  22.6271070
  13.8994970  74.1580520  20.8745740  13.1950540  74.4465410  21.4548850
  14.2607130  74.9680630  20.5145300   3.8173540  72.4150220  23.2366350
   4.1590350  73.2592270  22.9420220   2.8789350  72.5633960  23.3531690
   4.5980160  82.3116240  25.2218580   5.2154160  82.9867320  24.9403030
   3.7373280  82.7204220  25.1306080  15.5157750  83.7755650  23.1373220
  14.8321270  84.4454760  23.1289890  16.0552040  83.9736300  22.3718080
  16.9681890  73.6035310  21.2654950  16.0206800  73.6374290  21.3970380
  17.2931880  74.4174260  21.6504310   7.5001430  69.9032490  19.5610940
   7.8076410  69.3479380  18.8446440   6.5702130  70.0376950  19.3783930
  13.0516490  85.6199780  21.8518400  13.0643650  85.2162070  20.9840660
  12.4991710  86.3947070  21.7479830  14.3461910  82.3416000  16.9408570
  14.2358240  81.3990330  17.0657990  14.3430160  82.7031640  17.8271330
  12.4501930  80.5229620  23.1801010  12.8670720  80.3089730  22.3454470
  13.1741750  80.7802410  23.7509630   9.8882190  77.9681320  16.2971060
   8.9611470  77.9018700  16.5259530  10.0407010  78.9061450  16.1826300
   9.8751270  74.2398320  13.2938220   8.9354940  74.4012280  13.3790680
  10.1934530  74.9584000  12.7474210  16.3964030  78.9216840  23.2717250
  15.5682660  78.9909930  22.7967380  16.9914510  79.5071150  22.8033080
  13.9179480  79.5301620  16.8006310  13.2991900  79.1921170  16.1532610
  13.9003930  78.8861380  17.5085500  13.3606040  75.7086160  24.2172120
  12.9477220  76.5339870  24.4712110  12.6281990  75.1231200  24.0248480
   5.4938830  78.4946060  19.0790790   5.0895830  77.7823310  18.5836690
   5.5801950  78.1499300  19.9678830   5.9620530  82.1813620  21.2430000
   5.6648820  81.5759090  20.5637780   6.9120350  82.2190930  21.1319360
   4.2067450  75.2689270  22.8589830   4.7582040  75.3784610  22.0843080
   4.7210960  75.6426870  23.5745060  14.0506140  85.7545490  24.9053100
  13.5736700  86.5617680  24.7125710  13.3667930  85.1023820  25.0579310
   5.0538960  81.9195310  27.8937800   4.1567490  82.1435280  28.1411200
   5.0791830  82.0430250  26.9449200  12.0944180  78.7688430  13.8079060
  12.5337460  77.9310860  13.6616880  12.8072600  79.4017830  13.8943200
   3.8810180  78.7908630  26.4695170   3.7417950  79.6631430  26.8382570
   2.9991540  78.4481440  26.3243110  10.2039560  83.7084500  17.7760300
  10.6435470  84.4508830  17.3615690  10.1426450  83.9511070  18.6999260
   5.6790530  84.7330330  28.6780320   5.6505960  85.1373280  27.8108750
   5.5155500  83.8040690  28.5151920  15.6761320  70.0231240  12.1220100
  15.3633980  70.1158070  13.0219170  16.4373790  70.6012270  12.0717530
   2.1943460  77.3891040  16.5797440   2.0741060  78.1153130  15.9678710
   1.8844350  76.6193950  16.1025350  17.6305350  85.5157430  29.9744490
  18.1065070  85.9940320  30.6533570  18.2512510  85.4474920  29.2489990
  17.0338600  82.7070280  27.1344500  17.1601660  82.4682160  26.2161680
  17.0759980  81.8754820  27.6066580  10.8955340  86.4098280  25.7039310
  11.4100010  86.3206290  26.5061740  10.0524420  86.7557980  25.9967220
  12.8709740  86.6953620  15.1323310  12.7110880  86.4056560  16.0305140
  12.7056450  85.9193750  14.5968540   5.3498120  86.4752150  16.9094930
   5.1740600  85.5587690  16.6962730   4.4953860  86.8339440  17.1492730
  12.5735870  84.2041180  13.6921310  11.8801030  84.2018470  13.0323590
  13.3158730  83.7800500  13.2615480  12.1385800  85.8303890  17.7669800
  12.5942750  85.0493270  18.0808420  12.4778320  86.5410710  18.3110980
  16.8862610  74.7602740  28.0994240  16.2706880  75.2682410  27.5709700
  16.5659030  73.8601070  28.0420180   4.6607120  70.7326110  19.9621110
   4.2175270  71.5135650  19.6305630   5.2192110  71.0556000  20.6692050
   8.9476930  73.5994630  25.5656430   8.4856300  73.8077650  26.3776370
   8.5455040  72.7853980  25.2627100  13.9481440  74.8203580  26.6953090
  13.0975030  74.5209330  27.0162160  13.7883230  75.0645590  25.7836910
  11.0431150  76.3205330  28.7951880  11.3684560  75.4869080  28.4554110
  11.8311480  76.8433850  28.9430210   7.7765940  70.3536810  14.8426940
   7.1520120  70.3496680  15.5680250   7.6896060  69.4867770  14.4462910
   6.6983020  71.2773440  21.8210710   6.9955350  72.1836270  21.7402730
   7.2468580  70.7892220  21.2070280   4.4521340  75.8559680  17.6902360
   4.2262260  75.6396850  18.5948980   3.6713870  76.2888140  17.3448330
  11.6819100  75.8623050  16.2893010  11.0827990  76.5858850  16.1056630
  12.2298710  75.7999830  15.5069460   6.8920550  76.7545260  28.3562630
   6.7964150  75.8139990  28.2063030   7.7352530  76.9760330  27.9610700
  10.2883970  74.4986590  18.3196290  10.6813540  74.8158790  17.5064980
  10.6500820  73.6198470  18.4340810   8.5976140  73.2493900  29.5793150
   7.9074460  73.0566100  30.2139240   9.3408440  73.5328540  30.1117450
  10.8739110  77.0892340  22.4147070  10.1420230  77.5979150  22.7637170
  10.4763450  76.2722320  22.1135850   7.3116500  73.7646540  20.8199560
   7.3152560  73.3236490  19.9704100   8.2067620  74.0863870  20.9271380
   3.1618880  73.6473030  19.7793770   2.8218930  74.1248260  20.5360820
   2.3996200  73.1938150  19.4194870   7.3736650  74.7658620  13.8106320
   7.4949470  74.7245100  14.7592140   6.9885160  75.6282770  13.6553050
  11.3365020  72.5426020  21.8270010  11.3537760  72.9934670  22.6711860
  11.0880600  71.6431660  22.0403450   6.3858150  77.0759760  13.2089620
   5.8175050  76.6278010  12.5825530   7.0947150  77.4352540  12.6754770
  14.7635770  69.9558200  27.6656390  15.0881540  69.2247860  28.1914370
  14.7992280  69.6371840  26.7637380   7.6124470  77.8248320  22.5664970
   7.9794600  77.3506890  23.3126310   7.4229530  78.6989890  22.9073310
   5.4023840  76.8656960  24.8849180   5.0980910  77.7448940  25.1099540
   6.3570300  76.9256750  24.9206620   3.9305630  81.0717950  15.4816030
   3.1567890  80.5315570  15.3214750   4.6600260  80.5524560  15.1433790
  14.6893610  80.0683310  21.2742420  15.4092730  80.5638600  20.8838530
  14.4875430  79.3901200  20.6296290  10.1503550  71.4621270  15.4171810
   9.3368160  70.9634440  15.3417120   9.9565500  72.3019520  15.0008160
  10.0712410  80.1392370  27.1611420  10.0049720  79.2188040  26.9069010
   9.4417550  80.2367810  27.8756060  12.8651940  75.8340920  13.7133970
  13.7531560  76.1458150  13.5385310  12.8357030  74.9613170  13.3214550
   3.9743030  80.7398330  19.1194840   4.4921700  79.9366590  19.0651730
   3.5227050  80.6777470  19.9611670   8.8612530  82.0064610  14.3922140
   9.2028230  82.7506840  13.8965460   8.0325240  82.3195730  14.7546970
   4.6600690  78.1643940  28.9160090   4.3600830  78.3101120  28.0187910
   5.4311930  77.6049230  28.8233480  10.0029140  82.9612940  26.9115220
  10.0173680  82.0293900  26.6934130   9.2954240  83.0472700  27.5504990
  15.1366210  77.1452760  13.1813830  15.0529930  77.5766980  12.3310270
  15.8560400  77.6051110  13.6140650  16.2140350  79.6020280  26.2583800
  15.4888540  80.1949060  26.0613190  16.7415810  79.5943820  25.4597170
  16.1653460  83.9995020  15.9095960  15.5229620  83.3450640  16.1839680
  15.7784120  84.4050110  15.1336630  11.7439940  81.3280450  19.7567650
  12.0963760  80.7308580  19.0969020  10.8602270  81.0024680  19.9275900
   7.8303220  82.0878140  17.1638060   8.5174350  82.6347350  17.5445650
   7.0435640  82.6318870  17.1987670   7.1330430  79.0924170  16.7763420
   7.5893210  79.9029420  17.0023610   6.7818640  78.7747310  17.6081910
   9.4363040  84.6030510  24.0055720  10.0805260  84.8089890  24.6829140
   9.7992480  83.8418910  23.5526570   3.0342210  69.4361820  17.2485940
   2.9056840  69.4279720  18.1970860   2.2104230  69.7744910  16.8976950
  10.7095120  82.6062860  22.7233170  11.3517350  81.9056020  22.8365340
  11.2344470  83.3861300  22.5430060  14.5550840  82.8911480  12.4472310
  14.3288420  82.1741920  13.0396950  14.1647040  82.6423920  11.6094060
  12.4832740  83.4057760  25.9269230  12.8188980  83.9924450  26.6047150
  11.5633080  83.2750470  26.1567020  14.1367090  80.8083420  14.1086470
  13.8488790  81.2696110  14.8964350  14.9319260  80.3481190  14.3770690
   8.3121320  83.4549090  29.0957290   7.9918190  82.7358330  29.6402980
   7.6379680  84.1304160  29.1693350   6.3535490  84.3009540  14.0390440
   6.3445590  85.0339230  13.4234950   5.4333850  84.0541120  14.1317400
  11.5274920  73.6875250  24.4594090  11.8955740  72.8670460  24.7873660
  10.6673120  73.7477140  24.8749740  14.8936950  72.6432190  15.2681650
  14.2650110  72.7477860  14.5539880  14.3988870  72.8628970  16.0575530
   9.3395090  84.3637780  12.7015630   9.4407070  84.1601770  11.7717610
   8.4396830  84.1096060  12.9063410   6.8620980  74.9218140  16.6839530
   6.1537130  75.3904480  17.1253140   7.1465460  74.2640150  17.3184720
   8.4876910  76.3414840  24.6832060   8.9862160  76.8160660  25.3483910
   8.6299860  75.4178360  24.8902090  10.8936410  71.6468800  18.1235320
  10.7704190  71.6654930  17.1744830  11.8420970  71.6947740  18.2433720
   7.9813200  86.8824100  17.3963300   8.2354700  86.8445490  16.4742670
   7.0325680  86.7557430  17.3891550   5.0656000  73.2303220  14.0590240
   5.9146530  73.6673370  13.9930430   4.6987270  73.5423480  14.8862300
  15.6943770  72.5582800  25.5260450  15.1917370  73.2988200  25.8654260
  16.5100430  72.9466800  25.2097240  13.9865780  77.8015980  18.9721810
  13.0455920  77.8166210  19.1469500  14.3009850  77.0151940  19.4182110
   3.9647420  79.4835580  12.5325770   4.7310690  79.3716940  13.0951200
   4.0422110  78.7873550  11.8802540   2.6594180  76.9160650  13.2158660
   2.7397770  75.9688160  13.3276060   3.5513930  77.2467530  13.3219320
  15.9891360  84.9724830  20.6476070  16.1138780  85.7956000  21.1199880
  16.8556920  84.7615560  20.3000220   3.4608890  87.0656040  20.3193200
   4.1971370  86.5171500  20.5901770   3.8449810  87.9312050  20.1799190
   2.4667170  86.2502110  29.5078780   3.2679900  86.5714160  29.9214180
   1.9518990  85.8897690  30.2298690   6.5711200  86.2386350  12.1418770
   7.3639810  86.5275180  11.6900560   6.0515550  85.8078520  11.4631250
  11.3031800  82.3581980  29.4554190  10.6969960  82.3813580  28.7149940
  10.9985910  81.6265020  29.9921440  12.7332170  86.0862270  28.0663600
  13.6853920  86.0020290  28.0163840  12.5860390  86.7503980  28.7397390
  15.6241370  85.4656480  13.5655510  15.3382880  85.0521620  12.7509690
  15.4260920  86.3944190  13.4456030   7.0888600  81.4589760  12.0061120
   6.9839240  80.8442110  12.7322500   6.9212820  80.9355650  11.2224130
   7.2402920  80.1446560  27.9850350   6.4748590  80.7131560  27.9005020
   7.4218880  79.8522770  27.0918580  10.3291330  80.5209790  12.6103110
   9.7801430  80.9679090  13.2545850  10.9510590  80.0159040  13.1340780
  14.3826270  81.8751890  28.5425370  15.1235740  82.2127650  28.0392830
  13.6198950  82.0443950  27.9895140   2.2188060  76.8805160  29.3464900
   2.2593400  76.5819030  30.2550130   3.0733560  77.2812770  29.1872420
   5.9966450  79.4800710  14.5068410   6.4182870  79.3140580  15.3499800
   6.1217290  78.6700940  14.0123550   4.1593870  75.4597260  27.3139390
   3.6290330  74.9688210  26.6862730   4.8281940  75.8881460  26.7797320
   8.5094090  78.5038320  11.7545510   9.0299750  77.7887340  11.3886660
   9.1562490  79.1424190  12.0546020  13.0571930  79.9266720  27.0780580
  13.4712950  80.0811800  27.9271000  12.1222930  80.0521940  27.2406360
  13.5294100  77.2662880  29.0819730  14.1114870  76.5115200  28.9940210
  13.7055870  77.7970320  28.3051210   4.6466170  72.4259630  27.3936680
   4.5523040  71.8080380  26.6687550   4.0663560  73.1525920  27.1666590
   7.4127610  70.9832870  24.4264070   6.9644910  71.0057130  23.5809620
   6.7792810  70.5851890  25.0234370   7.8187160  79.8787200  25.0476510
   8.2375270  80.7219930  24.8752750   6.8995790  80.0159240  24.8183290
  10.1551060  77.6103380  26.4314350  10.2747270  77.0144520  27.1709190
  11.0145060  77.6473070  26.0115650  12.4938960  78.1640570  25.0076860
  11.9674180  78.6883190  24.4042000  12.8370300  78.7967960  25.6386590
   4.8925350  75.5533940  11.4526570   4.6914410  74.6901300  11.8139910
   4.7217400  75.4667300  10.5148170   5.6694580  86.1840210  26.1634240
   5.1315670  86.9086270  25.8442940   5.9228540  85.7070550  25.3731580
   6.9219830  74.1524730  27.6890170   7.5119520  73.8440580  28.3767990
   6.1040070  73.6804480  27.8450070  11.7413260  73.7690540  27.9223190
  11.0528780  73.1072080  27.8573180  12.4619280  73.3228810  28.3671650
  12.3713660  70.3642170  13.9813450  12.6515950  69.5210070  14.3372870
  11.5979390  70.5965280  14.4952200   3.6908150  72.6534560  11.4404450
   3.9934050  72.6601990  10.5323600   4.4302740  72.3032420  11.9372110
   8.5256790  87.4191420  26.4220890   8.4515490  88.3226560  26.7293260
   7.6235630  87.1003320  26.3942960   6.9093080  71.5969180  12.4260650
   6.5615080  70.9193170  11.8463100   7.1105850  71.1358690  13.2404040
   9.0742120  86.5849930  14.0447250   9.9692910  86.9234900  14.0666010
   9.1059750  85.8629340  13.4171530   2.7138280  81.9576980  12.2734250
   3.1513150  82.5006650  12.9291830   3.1986010  81.1323930  12.2830590
   4.5246000  83.0775020  17.3856480   4.2241540  82.9539990  18.2860390
   4.4183490  82.2183610  16.9772210  16.0536470  85.1153600  26.7513450
  15.4538460  85.1746160  26.0077370  16.1830370  84.1758580  26.8810300
  17.2937920  82.8571420  12.0883160  16.4630880  82.9248070  12.5590390
  17.4709750  83.7475540  11.7850020  16.7494380  79.6018900  14.5917360
  17.5113290  80.1715550  14.6977050  16.7648750  79.0346100  15.3625670
  17.7554350  80.4569000  19.4359290  18.1263180  79.6736320  19.0295260
  18.3956280  81.1458100  19.2576590  14.7388110  81.8405580  24.8489610
  13.9247950  82.2702740  25.1115400  15.1462310  82.4523990  24.2358660
  16.8013550  79.8953270  11.7489880  17.0762390  80.8032150  11.6209100
  16.6124290  79.8315800  12.6851870  13.1989160  72.9198120  13.0443510
  13.6174040  72.7329100  12.2040170  12.8925220  72.0677170  13.3546440
  16.6978890  77.8322260  16.7419310  16.3222490  77.0650190  16.3100600
  15.9682010  78.2144960  17.2294240  16.0878510  76.9793780  26.3758830
  15.8564600  76.7506530  25.4756780  16.3483060  77.8993330  26.3303720
  14.5266580  72.2050210  29.1538530  15.4036760  72.2133610  29.5372530
  14.5387420  71.4681050  28.5430880  15.9729850  76.0579750  20.0426550
  16.4967330  75.5642400  19.4116720  16.5589270  76.1930110  20.7874120
  16.1519570  76.1419620  23.5646100  15.2022280  76.1083160  23.6791090
  16.3332580  77.0519730  23.3295870  15.4629820  75.3153100  15.9818960
  15.9588940  75.0823970  16.7667840  15.2645890  74.4764940  15.5656600
  16.8916980  73.9514050  18.5156640  16.7816260  73.7970090  19.4538910
  17.6524570  73.4234990  18.2732050  15.2382700  69.8908180  24.9739640
  15.8754920  70.5042320  25.3398830  15.3857590  69.9268840  24.0288870
  17.7807250  71.7821970  11.7562780  18.7056560  71.6503150  11.5481070
  17.7583040  71.8614790  12.7099230  17.8545740  72.5532630  14.3819490
  17.0597240  72.4877750  14.9112400  18.0589020  73.4883270  14.3704840
  14.7964160  86.5924180  18.3757880  15.3923230  86.2708750  17.6992300
  15.0542310  86.1196000  19.1671150   2.7026730  83.0242090  28.5248510
   2.6596360  82.6535000  29.4062970   2.8337740  83.9619660  28.6650330
   6.4032760  84.5801680  24.1258230   6.1624120  84.8476240  23.2388750
   7.3435400  84.7507410  24.1809090   8.6087180  71.0434370  27.8814740
   8.5476070  71.6356200  28.6310150   9.5487560  70.9360330  27.7365000
  11.2461740  70.7004430  27.5207030  11.8602150  71.0183720  26.8588110
  11.7911300  70.2153020  28.1402890  17.6636920  86.5996060  24.9268870
  17.1695200  86.9964930  24.2096000  17.0550210  85.9745270  25.3206150
   1.7683000  69.3798690  27.6346090   2.3165990  69.1986740  26.8712200
   1.8338310  68.5892800  28.1702400   2.5414760  85.9704340  25.6446290
   1.9475080  85.8389040  26.3836330   2.5338600  85.1342480  25.1788390
  11.9869780  69.2636570  23.8476320  11.1129620  69.5971680  23.6449250
  11.8780530  68.7909750  24.6728190  12.8941760  71.4707440  25.2318040
  12.5655120  70.6559200  24.8519770  13.8424060  71.4277250  25.1083730
  15.3476370  87.2419480  22.2055610  14.8879340  87.9935290  21.8313630
  14.7188830  86.5225950  22.1470410   5.7772090  85.5507720  21.3803740
   6.2937110  84.9395080  20.8552000   6.4269470  86.0536500  21.8714750
   8.5167590  86.4416210  22.2072720   8.8045400  86.1870510  21.3305730
   9.0290810  85.8893570  22.7978290   9.7344600  70.1806410  22.7869230
   8.9516390  70.6551910  23.0665990   9.4407530  69.2761240  22.6782410
  14.2865670  70.8829510  20.8318320  14.7273760  70.8274610  19.9839920
  14.0173260  71.7987520  20.9028500  16.1504240  70.5144750  18.8427140
  16.0892640  69.5705970  18.6958160  16.9296270  70.6224840  19.3880600
   7.6198820  72.5993160  18.2985260   6.8073330  72.2250050  17.9581140
   8.1240460  71.8438240  18.6006450  12.1223800  69.2635610  19.5368330
  12.7253170  69.8355820  20.0116850  11.3816790  69.8275050  19.3142230
  15.2658400  69.6657170  14.8108610  15.4609030  70.5640620  15.0776040
  14.4788270  69.4344250  15.3041560   3.4510160  71.0117940  13.8484920
   3.9802920  70.2247740  13.7192870   4.0838480  71.6909130  14.0820450
   5.6448000  70.7493080  16.9030310   5.0150740  70.0480390  17.0700440
   5.1053140  71.5097210  16.6863470   8.5839950  87.3632310  29.5740920
   9.5107260  87.1276580  29.6176880   8.5690380  88.1904310  29.0926950
  16.8185010  86.9057880  16.5715170  16.9937200  86.2195620  15.9276090
  16.1206580  87.4304930  16.1791840   5.7703560  70.0277060  29.3382800
   5.4887830  70.5310660  28.5743620   6.1523260  69.2298810  28.9724930
   4.6612660  87.2952720  14.1250480   5.3931480  87.0112000  13.5774370
   4.9206330  87.0566000  15.0149860   3.8227450  83.4117450  14.1296810
   3.1936330  83.8802550  14.6782640   3.9375280  82.5666670  14.5643000
  12.3719020  69.4430640  29.9163270  12.2584470  69.7625250  30.8114790
  13.1888760  69.8443150  29.6200550  15.1517510  86.5902170  29.3981960
  15.9442830  86.0951400  29.1907920  15.4450660  87.2692310  30.0057570
   9.4095210  79.2402130   2.1607280   8.6337310  78.7602570   2.4505850
  10.0608140  78.5607780   1.9863440   3.4261040  79.5521940   3.0383040
   2.5945920  79.2970650   3.4379550   4.0342020  79.6232710   3.7740960
   3.4062300  83.5862030   3.2341060   3.7090340  82.6959770   3.0551280
   4.1505890  84.1432250   3.0063310   8.8504200  81.9159320   2.1677440
   8.7812480  80.9749260   2.0066570   9.6124060  82.0060730   2.7400010
   9.8809370  74.7229700   2.3946370  10.2574190  73.8501580   2.2820040
   9.7828880  75.0588400   1.5036810   5.8522110  76.0641700   2.1888990
   6.3600330  76.5622670   2.8294010   6.3835350  75.2876900   2.0128350
  17.9533040  74.2346890   5.8918340  17.2485210  74.6228600   5.3733450
  18.2190960  74.9297180   6.4939270   4.1358210  70.7040260   6.4552410
   4.1376650  71.2212650   5.6498310   3.3062520  70.2270440   6.4322340
   5.3861060  80.3435440   4.6325910   5.0530440  80.9704360   5.2746980
   5.5627740  80.8697320   3.8527580  13.8994970  74.1580520   2.1002250
  13.1950540  74.4465410   2.6805360  14.2607130  74.9680630   1.7401810
   3.8173540  72.4150220   4.4622860   4.1590350  73.2592270   4.1676730
   2.8789350  72.5633960   4.5788200   4.5980160  82.3116240   6.4475090
   5.2154160  82.9867320   6.1659540   3.7373280  82.7204220   6.3562590
  15.5157750  83.7755650   4.3629730  14.8321270  84.4454760   4.3546400
  16.0552040  83.9736300   3.5974590  16.9681890  73.6035310   2.4911460
  16.0206800  73.6374290   2.6226890  17.2931880  74.4174260   2.8760820
  13.0516490  85.6199780   3.0774910  13.0643650  85.2162070   2.2097170
  12.4991710  86.3947070   2.9736340  12.4501930  80.5229620   4.4057520
  12.8670720  80.3089730   3.5710980  13.1741750  80.7802410   4.9766140
  16.3964030  78.9216840   4.4973760  15.5682660  78.9909930   4.0223890
  16.9914510  79.5071150   4.0289590  13.3606040  75.7086160   5.4428630
  12.9477220  76.5339870   5.6968620  12.6281990  75.1231200   5.2504990
   5.9620530  82.1813620   2.4686510   5.6648820  81.5759090   1.7894290
   6.9120350  82.2190930   2.3575870   4.2067450  75.2689270   4.0846340
   4.7582040  75.3784610   3.3099590   4.7210960  75.6426870   4.8001570
  14.0506140  85.7545490   6.1309610  13.5736700  86.5617680   5.9382220
  13.3667930  85.1023820   6.2835820   5.0538960  81.9195310   9.1194310
   4.1567490  82.1435280   9.3667710   5.0791830  82.0430250   8.1705710
   3.8810180  78.7908630   7.6951680   3.7417950  79.6631430   8.0639080
   2.9991540  78.4481440   7.5499620   5.6790530  84.7330330   9.9036830
   5.6505960  85.1373280   9.0365260   5.5155500  83.8040690   9.7408430
  17.6305350  85.5157430  11.2001000  18.1065070  85.9940320  11.8790080
  18.2512510  85.4474920  10.4746500  17.0338600  82.7070280   8.3601010
  17.1601660  82.4682160   7.4418190  17.0759980  81.8754820   8.8323090
  10.8955340  86.4098280   6.9295820  11.4100010  86.3206290   7.7318250
  10.0524420  86.7557980   7.2223730  16.8862610  74.7602740   9.3250750
  16.2706880  75.2682410   8.7966210  16.5659030  73.8601070   9.2676690
   8.9476930  73.5994630   6.7912940   8.4856300  73.8077650   7.6032880
   8.5455040  72.7853980   6.4883610  13.9481440  74.8203580   7.9209600
  13.0975030  74.5209330   8.2418670  13.7883230  75.0645590   7.0093420
  11.0431150  76.3205330  10.0208390  11.3684560  75.4869080   9.6810620
  11.8311480  76.8433850  10.1686720   6.6983020  71.2773440   3.0467220
   6.9955350  72.1836270   2.9659240   7.2468580  70.7892220   2.4326790
   6.8920550  76.7545260   9.5819140   6.7964150  75.8139990   9.4319540
   7.7352530  76.9760330   9.1867210   8.5976140  73.2493900  10.8049660
   7.9074460  73.0566100  11.4395750   9.3408440  73.5328540  11.3373960
  10.8739110  77.0892340   3.6403580  10.1420230  77.5979150   3.9893680
  10.4763450  76.2722320   3.3392360  11.3365020  72.5426020   3.0526520
  11.3537760  72.9934670   3.8968370  11.0880600  71.6431660   3.2659960
  14.7635770  69.9558200   8.8912900  15.0881540  69.2247860   9.4170880
  14.7992280  69.6371840   7.9893890   7.6124470  77.8248320   3.7921480
   7.9794600  77.3506890   4.5382820   7.4229530  78.6989890   4.1329820
   5.4023840  76.8656960   6.1105690   5.0980910  77.7448940   6.3356050
   6.3570300  76.9256750   6.1463130  14.6893610  80.0683310   2.4998930
  15.4092730  80.5638600   2.1095040  14.4875430  79.3901200   1.8552800
  10.0712410  80.1392370   8.3867930  10.0049720  79.2188040   8.1325520
   9.4417550  80.2367810   9.1012570   4.6600690  78.1643940  10.1416600
   4.3600830  78.3101120   9.2444420   5.4311930  77.6049230  10.0489990
  10.0029140  82.9612940   8.1371730  10.0173680  82.0293900   7.9190640
   9.2954240  83.0472700   8.7761500  16.2140350  79.6020280   7.4840310
  15.4888540  80.1949060   7.2869700  16.7415810  79.5943820   6.6853680
   9.4363040  84.6030510   5.2312230  10.0805260  84.8089890   5.9085650
   9.7992480  83.8418910   4.7783080  10.7095120  82.6062860   3.9489680
  11.3517350  81.9056020   4.0621850  11.2344470  83.3861300   3.7686570
  12.4832740  83.4057760   7.1525740  12.8188980  83.9924450   7.8303660
  11.5633080  83.2750470   7.3823530   8.3121320  83.4549090  10.3213800
   7.9918190  82.7358330  10.8659490   7.6379680  84.1304160  10.3949860
  11.5274920  73.6875250   5.6850600  11.8955740  72.8670460   6.0130170
  10.6673120  73.7477140   6.1006250   8.4876910  76.3414840   5.9088570
   8.9862160  76.8160660   6.5740420   8.6299860  75.4178360   6.1158600
  15.6943770  72.5582800   6.7516960  15.1917370  73.2988200   7.0910770
  16.5100430  72.9466800   6.4353750  15.9891360  84.9724830   1.8732580
  16.1138780  85.7956000   2.3456390  16.8556920  84.7615560   1.5256730
   2.4667170  86.2502110  10.7335290   3.2679900  86.5714160  11.1470690
   1.9518990  85.8897690  11.4555200  11.3031800  82.3581980  10.6810700
  10.6969960  82.3813580   9.9406450  10.9985910  81.6265020  11.2177950
  12.7332170  86.0862270   9.2920110  13.6853920  86.0020290   9.2420350
  12.5860390  86.7503980   9.9653900   7.2402920  80.1446560   9.2106860
   6.4748590  80.7131560   9.1261530   7.4218880  79.8522770   8.3175090
  14.3826270  81.8751890   9.7681880  15.1235740  82.2127650   9.2649340
  13.6198950  82.0443950   9.2151650   2.2188060  76.8805160  10.5721410
   2.2593400  76.5819030  11.4806640   3.0733560  77.2812770  10.4128930
   4.1593870  75.4597260   8.5395900   3.6290330  74.9688210   7.9119240
   4.8281940  75.8881460   8.0053830  13.0571930  79.9266720   8.3037090
  13.4712950  80.0811800   9.1527510  12.1222930  80.0521940   8.4662870
  13.5294100  77.2662880  10.3076240  14.1114870  76.5115200  10.2196720
  13.7055870  77.7970320   9.5307720   4.6466170  72.4259630   8.6193190
   4.5523040  71.8080380   7.8944060   4.0663560  73.1525920   8.3923100
   7.4127610  70.9832870   5.6520580   6.9644910  71.0057130   4.8066130
   6.7792810  70.5851890   6.2490880   7.8187160  79.8787200   6.2733020
   8.2375270  80.7219930   6.1009260   6.8995790  80.0159240   6.0439800
  10.1551060  77.6103380   7.6570860  10.2747270  77.0144520   8.3965700
  11.0145060  77.6473070   7.2372160  12.4938960  78.1640570   6.2333370
  11.9674180  78.6883190   5.6298510  12.8370300  78.7967960   6.8643100
   5.6694580  86.1840210   7.3890750   5.1315670  86.9086270   7.0699450
   5.9228540  85.7070550   6.5988090   6.9219830  74.1524730   8.9146680
   7.5119520  73.8440580   9.6024500   6.1040070  73.6804480   9.0706580
  11.7413260  73.7690540   9.1479700  11.0528780  73.1072080   9.0829690
  12.4619280  73.3228810   9.5928160   8.5256790  87.4191420   7.6477400
   8.4515490  88.3226560   7.9549770   7.6235630  87.1003320   7.6199470
  16.0536470  85.1153600   7.9769960  15.4538460  85.1746160   7.2333880
  16.1830370  84.1758580   8.1066810  14.7388110  81.8405580   6.0746120
  13.9247950  82.2702740   6.3371910  15.1462310  82.4523990   5.4615170
  16.0878510  76.9793780   7.6015340  15.8564600  76.7506530   6.7013290
  16.3483060  77.8993330   7.5560230  14.5266580  72.2050210  10.3795040
  15.4036760  72.2133610  10.7629040  14.5387420  71.4681050   9.7687390
  16.1519570  76.1419620   4.7902610  15.2022280  76.1083160   4.9047600
  16.3332580  77.0519730   4.5552380  15.2382700  69.8908180   6.1996150
  15.8754920  70.5042320   6.5655340  15.3857590  69.9268840   5.2545380
   2.7026730  83.0242090   9.7505020   2.6596360  82.6535000  10.6319480
   2.8337740  83.9619660   9.8906840   6.4032760  84.5801680   5.3514740
   6.1624120  84.8476240   4.4645260   7.3435400  84.7507410   5.4065600
   8.6087180  71.0434370   9.1071250   8.5476070  71.6356200   9.8566660
   9.5487560  70.9360330   8.9621510  11.2461740  70.7004430   8.7463540
  11.8602150  71.0183720   8.0844620  11.7911300  70.2153020   9.3659400
  17.6636920  86.5996060   6.1525380  17.1695200  86.9964930   5.4352510
  17.0550210  85.9745270   6.5462660   1.7683000  69.3798690   8.8602600
   2.3165990  69.1986740   8.0968710   1.8338310  68.5892800   9.3958910
   2.5414760  85.9704340   6.8702800   1.9475080  85.8389040   7.6092840
   2.5338600  85.1342480   6.4044900  11.9869780  69.2636570   5.0732830
  11.1129620  69.5971680   4.8705760  11.8780530  68.7909750   5.8984700
  12.8941760  71.4707440   6.4574550  12.5655120  70.6559200   6.0776280
  13.8424060  71.4277250   6.3340240  15.3476370  87.2419480   3.4312120
  14.8879340  87.9935290   3.0570140  14.7188830  86.5225950   3.3726920
   5.7772090  85.5507720   2.6060250   6.2937110  84.9395080   2.0808510
   6.4269470  86.0536500   3.0971260   8.5167590  86.4416210   3.4329230
   8.8045400  86.1870510   2.5562240   9.0290810  85.8893570   4.0234800
   9.7344600  70.1806410   4.0125740   8.9516390  70.6551910   4.2922500
   9.4407530  69.2761240   3.9038920   8.5839950  87.3632310  10.7997430
   9.5107260  87.1276580  10.8433390   8.5690380  88.1904310  10.3183460
   5.7703560  70.0277060  10.5639310   5.4887830  70.5310660   9.8000130
   6.1523260  69.2298810  10.1981440  12.3719020  69.4430640  11.1419780
  12.2584470  69.7625250  12.0371300  13.1888760  69.8443150  10.8457060
  15.1517510  86.5902170  10.6238470  15.9442830  86.0951400  10.4164430
  15.4450660  87.2692310  11.2314080  11.2777170  58.6879620  56.6028480
  11.1971220  57.7734230  56.3320190  10.8641590  59.1846690  55.8968190
  13.4302640  64.8718830  57.2636880  12.9684170  64.1006070  57.5924050
  14.2428190  64.8984900  57.7689330   9.6565950  67.1576840  56.8840870
   9.0377390  67.6134340  56.3135310  10.5117730  67.3128300  56.4830570
   4.0114380  54.3211840  54.1794280   4.1181130  55.2215570  54.4863040
   3.1006740  54.2729810  53.8888930  13.6633490  53.4436650  55.6505180
  14.4843110  52.9533220  55.6930660  13.6967570  54.0334310  56.4037020
  10.5229300  62.0416080  54.2772780   9.9046570  62.5065530  53.7135500
  11.0352550  62.7343560  54.6942290   7.5001430  51.1289000  57.1097920
   7.8076410  50.5735890  56.3933420   6.5702130  51.2633460  56.9270910
  14.3461910  63.5672510  54.4895550  14.2358240  62.6246840  54.6144970
  14.3430160  63.9288150  55.3758310   9.8882190  59.1937830  53.8458040
   8.9611470  59.1275210  54.0746510  10.0407010  60.1317960  53.7313280
   9.8751270  55.4654830  50.8425200   8.9354940  55.6268790  50.9277660
  10.1934530  56.1840510  50.2961190  13.9179480  60.7558130  54.3493290
  13.2991900  60.4177680  53.7019590  13.9003930  60.1117890  55.0572480
   5.4938830  59.7202570  56.6277770   5.0895830  59.0079820  56.1323670
   5.5801950  59.3755810  57.5165810  12.0944180  59.9944940  51.3566040
  12.5337460  59.1567370  51.2103860  12.8072600  60.6274340  51.4430180
  10.2039560  64.9341010  55.3247280  10.6435470  65.6765340  54.9102670
  10.1426450  65.1767580  56.2486240  15.6761320  51.2487750  49.6707080
  15.3633980  51.3414580  50.5706150  16.4373790  51.8268780  49.6204510
   2.1943460  58.6147550  54.1284420   2.0741060  59.3409640  53.5165690
   1.8844350  57.8450460  53.6512330  12.8709740  67.9210130  52.6810290
  12.7110880  67.6313070  53.5792120  12.7056450  67.1450260  52.1455520
   5.3498120  67.7008660  54.4581910   5.1740600  66.7844200  54.2449710
   4.4953860  68.0595950  54.6979710  12.5735870  65.4297690  51.2408290
  11.8801030  65.4274980  50.5810570  13.3158730  65.0057010  50.8102460
  12.1385800  67.0560400  55.3156780  12.5942750  66.2749780  55.6295400
  12.4778320  67.7667220  55.8597960   4.6607120  51.9582620  57.5108090
   4.2175270  52.7392160  57.1792610   5.2192110  52.2812510  58.2179030
   7.7765940  51.5793320  52.3913920   7.1520120  51.5753190  53.1167230
   7.6896060  50.7124280  51.9949890   4.4521340  57.0816190  55.2389340
   4.2262260  56.8653360  56.1435960   3.6713870  57.5144650  54.8935310
  11.6819100  57.0879560  53.8379990  11.0827990  57.8115360  53.6543610
  12.2298710  57.0256340  53.0556440  10.2883970  55.7243100  55.8683270
  10.6813540  56.0415300  55.0551960  10.6500820  54.8454980  55.9827790
   7.3116500  54.9903050  58.3686540   7.3152560  54.5493000  57.5191080
   8.2067620  55.3120380  58.4758360   3.1618880  54.8729540  57.3280750
   2.8218930  55.3504770  58.0847800   2.3996200  54.4194660  56.9681850
   7.3736650  55.9915130  51.3593300   7.4949470  55.9501610  52.3079120
   6.9885160  56.8539280  51.2040030   6.3858150  58.3016270  50.7576600
   5.8175050  57.8534520  50.1312510   7.0947150  58.6609050  50.2241750
   3.9305630  62.2974460  53.0303010   3.1567890  61.7572080  52.8701730
   4.6600260  61.7781070  52.6920770  10.1503550  52.6877780  52.9658790
   9.3368160  52.1890950  52.8904100   9.9565500  53.5276030  52.5495140
  12.8651940  57.0597430  51.2620950  13.7531560  57.3714660  51.0872290
  12.8357030  56.1869680  50.8701530   3.9743030  61.9654840  56.6681820
   4.4921700  61.1623100  56.6138710   3.5227050  61.9033980  57.5098650
   8.8612530  63.2321120  51.9409120   9.2028230  63.9763350  51.4452440
   8.0325240  63.5452240  52.3033950  15.1366210  58.3709270  50.7300810
  15.0529930  58.8023490  49.8797250  15.8560400  58.8307620  51.1627630
  16.1653460  65.2251530  53.4582940  15.5229620  64.5707150  53.7326660
  15.7784120  65.6306620  52.6823610  11.7439940  62.5536960  57.3054630
  12.0963760  61.9565090  56.6456000  10.8602270  62.2281190  57.4762880
   7.8303220  63.3134650  54.7125040   8.5174350  63.8603860  55.0932630
   7.0435640  63.8575380  54.7474650   7.1330430  60.3180680  54.3250400
   7.5893210  61.1285930  54.5510590   6.7818640  60.0003820  55.1568890
   3.0342210  50.6618330  54.7972920   2.9056840  50.6536230  55.7457840
   2.2104230  51.0001420  54.4463930  14.5550840  64.1167990  49.9959290
  14.3288420  63.3998430  50.5883930  14.1647040  63.8680430  49.1581040
  14.1367090  62.0339930  51.6573450  13.8488790  62.4952620  52.4451330
  14.9319260  61.5737700  51.9257670   6.3535490  65.5266050  51.5877420
   6.3445590  66.2595740  50.9721930   5.4333850  65.2797630  51.6804380
  14.8936950  53.8688700  52.8168630  14.2650110  53.9734370  52.1026860
  14.3988870  54.0885480  53.6062510   9.3395090  65.5894290  50.2502610
   9.4407070  65.3858280  49.3204590   8.4396830  65.3352570  50.4550390
   6.8620980  56.1474650  54.2326510   6.1537130  56.6160990  54.6740120
   7.1465460  55.4896660  54.8671700  10.8936410  52.8725310  55.6722300
  10.7704190  52.8911440  54.7231810  11.8420970  52.9204250  55.7920700
   7.9813200  68.1080610  54.9450280   8.2354700  68.0702000  54.0229650
   7.0325680  67.9813940  54.9378530   5.0656000  54.4559730  51.6077220
   5.9146530  54.8929880  51.5417410   4.6987270  54.7679990  52.4349280
  13.9865780  59.0272490  56.5208790  13.0455920  59.0422720  56.6956480
  14.3009850  58.2408450  56.9669090   3.9647420  60.7092090  50.0812750
   4.7310690  60.5973450  50.6438180   4.0422110  60.0130060  49.4289520
   2.6594180  58.1417160  50.7645640   2.7397770  57.1944670  50.8763040
   3.5513930  58.4724040  50.8706300   3.4608890  68.2912550  57.8680180
   4.1971370  67.7428010  58.1388750   3.8449810  69.1568560  57.7286170
   6.5711200  67.4642860  49.6905750   7.3639810  67.7531690  49.2387540
   6.0515550  67.0335030  49.0118230  15.6241370  66.6912990  51.1142490
  15.3382880  66.2778130  50.2996670  15.4260920  67.6200700  50.9943010
   7.0888600  62.6846270  49.5548100   6.9839240  62.0698620  50.2809480
   6.9212820  62.1612160  48.7711110  10.3291330  61.7466300  50.1590090
   9.7801430  62.1935600  50.8032830  10.9510590  61.2415550  50.6827760
   5.9966450  60.7057220  52.0555390   6.4182870  60.5397090  52.8986780
   6.1217290  59.8957450  51.5610530   8.5094090  59.7294830  49.3032490
   9.0299750  59.0143850  48.9373640   9.1562490  60.3680700  49.6033000
   4.8925350  56.7790450  49.0013550   4.6914410  55.9157810  49.3626890
   4.7217400  56.6923810  48.0635150  12.3713660  51.5898680  51.5300430
  12.6515950  50.7466580  51.8859850  11.5979390  51.8221790  52.0439180
   3.6908150  53.8791070  48.9891430   3.9934050  53.8858500  48.0810580
   4.4302740  53.5288930  49.4859090   6.9093080  52.8225690  49.9747630
   6.5615080  52.1449680  49.3950080   7.1105850  52.3615200  50.7891020
   9.0742120  67.8106440  51.5934230   9.9692910  68.1491410  51.6152990
   9.1059750  67.0885850  50.9658510   2.7138280  63.1833490  49.8221230
   3.1513150  63.7263160  50.4778810   3.1986010  62.3580440  49.8317570
   4.5246000  64.3031530  54.9343460   4.2241540  64.1796500  55.8347370
   4.4183490  63.4440120  54.5259190  17.2937920  64.0827930  49.6370140
  16.4630880  64.1504580  50.1077370  17.4709750  64.9732050  49.3337000
  16.7494380  60.8275410  52.1404340  17.5113290  61.3972060  52.2464030
  16.7648750  60.2602610  52.9112650  17.7554350  61.6825510  56.9846270
  18.1263180  60.8992830  56.5782240  18.3956280  62.3714610  56.8063570
  16.8013550  61.1209780  49.2976860  17.0762390  62.0288660  49.1696080
  16.6124290  61.0572310  50.2338850  13.1989160  54.1454630  50.5930490
  13.6174040  53.9585610  49.7527150  12.8925220  53.2933680  50.9033420
  16.6978890  59.0578770  54.2906290  16.3222490  58.2906700  53.8587580
  15.9682010  59.4401470  54.7781220  15.9729850  57.2836260  57.5913530
  16.4967330  56.7898910  56.9603700  16.5589270  57.4186620  58.3361100
  15.4629820  56.5409610  53.5305940  15.9588940  56.3080480  54.3154820
  15.2645890  55.7021450  53.1143580  16.8916980  55.1770560  56.0643620
  16.7816260  55.0226600  57.0025890  17.6524570  54.6491500  55.8219030
  17.7807250  53.0078480  49.3049760  18.7056560  52.8759660  49.0968050
  17.7583040  53.0871300  50.2586210  17.8545740  53.7789140  51.9306470
  17.0597240  53.7134260  52.4599380  18.0589020  54.7139780  51.9191820
  14.7964160  67.8180690  55.9244860  15.3923230  67.4965260  55.2479280
  15.0542310  67.3452510  56.7158130  14.2865670  52.1086020  58.3805300
  14.7273760  52.0531120  57.5326900  14.0173260  53.0244030  58.4515480
  16.1504240  51.7401260  56.3914120  16.0892640  50.7962480  56.2445140
  16.9296270  51.8481350  56.9367580   7.6198820  53.8249670  55.8472240
   6.8073330  53.4506560  55.5068120   8.1240460  53.0694750  56.1493430
  12.1223800  50.4892120  57.0855310  12.7253170  51.0612330  57.5603830
  11.3816790  51.0531560  56.8629210  15.2658400  50.8913680  52.3595590
  15.4609030  51.7897130  52.6263020  14.4788270  50.6600760  52.8528540
   3.4510160  52.2374450  51.3971900   3.9802920  51.4504250  51.2679850
   4.0838480  52.9165640  51.6307430   5.6448000  51.9749590  54.4517290
   5.0150740  51.2736900  54.6187420   5.1053140  52.7353720  54.2350450
  16.8185010  68.1314390  54.1202150  16.9937200  67.4452130  53.4763070
  16.1206580  68.6561440  53.7278820   4.6612660  68.5209230  51.6737460
   5.3931480  68.2368510  51.1261350   4.9206330  68.2822510  52.5636840
   3.8227450  64.6373960  51.6783790   3.1936330  65.1059060  52.2269620
   3.9375280  63.7923180  52.1129980  11.2777170  58.6879620  37.8284990
  11.1971220  57.7734230  37.5576700  10.8641590  59.1846690  37.1224700
   9.4095210  60.4658640  39.7094260   8.6337310  59.9859080  39.9992830
  10.0608140  59.7864290  39.5350420   3.4261040  60.7778450  40.5870020
   2.5945920  60.5227160  40.9866530   4.0342020  60.8489220  41.3227940
  13.4302640  64.8718830  38.4893390  12.9684170  64.1006070  38.8180560
  14.2428190  64.8984900  38.9945840   3.4062300  64.8118540  40.7828040
   3.7090340  63.9216280  40.6038260   4.1505890  65.3688760  40.5550290
   9.6565950  67.1576840  38.1097380   9.0377390  67.6134340  37.5391820
  10.5117730  67.3128300  37.7087080   8.8504200  63.1415830  39.7164420
   8.7812480  62.2005770  39.5553550   9.6124060  63.2317240  40.2886990
   9.8809370  55.9486210  39.9433350  10.2574190  55.0758090  39.8307020
   9.7828880  56.2844910  39.0523790   4.0114380  54.3211840  35.4050790
   4.1181130  55.2215570  35.7119550   3.1006740  54.2729810  35.1145440
  13.6633490  53.4436650  36.8761690  14.4843110  52.9533220  36.9187170
  13.6967570  54.0334310  37.6293530   5.8522110  57.2898210  39.7375970
   6.3600330  57.7879180  40.3780990   6.3835350  56.5133410  39.5615330
  17.9533040  55.4603400  43.4405320  17.2485210  55.8485110  42.9220430
  18.2190960  56.1553690  44.0426250   4.1358210  51.9296770  44.0039390
   4.1376650  52.4469160  43.1985290   3.3062520  51.4526950  43.9809320
  10.5229300  62.0416080  35.5029290   9.9046570  62.5065530  34.9392010
  11.0352550  62.7343560  35.9198800   5.3861060  61.5691950  42.1812890
   5.0530440  62.1960870  42.8233960   5.5627740  62.0953830  41.4014560
  13.8994970  55.3837030  39.6489230  13.1950540  55.6721920  40.2292340
  14.2607130  56.1937140  39.2888790   3.8173540  53.6406730  42.0109840
   4.1590350  54.4848780  41.7163710   2.8789350  53.7890470  42.1275180
   4.5980160  63.5372750  43.9962070   5.2154160  64.2123830  43.7146520
   3.7373280  63.9460730  43.9049570  15.5157750  65.0012160  41.9116710
  14.8321270  65.6711270  41.9033380  16.0552040  65.1992810  41.1461570
  16.9681890  54.8291820  40.0398440  16.0206800  54.8630800  40.1713870
  17.2931880  55.6430770  40.4247800   7.5001430  51.1289000  38.3354430
   7.8076410  50.5735890  37.6189930   6.5702130  51.2633460  38.1527420
  13.0516490  66.8456290  40.6261890  13.0643650  66.4418580  39.7584150
  12.4991710  67.6203580  40.5223320  14.3461910  63.5672510  35.7152060
  14.2358240  62.6246840  35.8401480  14.3430160  63.9288150  36.6014820
  12.4501930  61.7486130  41.9544500  12.8670720  61.5346240  41.1197960
  13.1741750  62.0058920  42.5253120   9.8882190  59.1937830  35.0714550
   8.9611470  59.1275210  35.3003020  10.0407010  60.1317960  34.9569790
   9.8751270  55.4654830  32.0681710   8.9354940  55.6268790  32.1534170
  10.1934530  56.1840510  31.5217700  16.3964030  60.1473350  42.0460740
  15.5682660  60.2166440  41.5710870  16.9914510  60.7327660  41.5776570
  13.9179480  60.7558130  35.5749800  13.2991900  60.4177680  34.9276100
  13.9003930  60.1117890  36.2828990  13.3606040  56.9342670  42.9915610
  12.9477220  57.7596380  43.2455600  12.6281990  56.3487710  42.7991970
   5.4938830  59.7202570  37.8534280   5.0895830  59.0079820  37.3580180
   5.5801950  59.3755810  38.7422320   5.9620530  63.4070130  40.0173490
   5.6648820  62.8015600  39.3381270   6.9120350  63.4447440  39.9062850
   4.2067450  56.4945780  41.6333320   4.7582040  56.6041120  40.8586570
   4.7210960  56.8683380  42.3488550  14.0506140  66.9802000  43.6796590
  13.5736700  67.7874190  43.4869200  13.3667930  66.3280330  43.8322800
   5.0538960  63.1451820  46.6681290   4.1567490  63.3691790  46.9154690
   5.0791830  63.2686760  45.7192690  12.0944180  59.9944940  32.5822550
  12.5337460  59.1567370  32.4360370  12.8072600  60.6274340  32.6686690
   3.8810180  60.0165140  45.2438660   3.7417950  60.8887940  45.6126060
   2.9991540  59.6737950  45.0986600  10.2039560  64.9341010  36.5503790
  10.6435470  65.6765340  36.1359180  10.1426450  65.1767580  37.4742750
   5.6790530  65.9586840  47.4523810   5.6505960  66.3629790  46.5852240
   5.5155500  65.0297200  47.2895410  15.6761320  51.2487750  30.8963590
  15.3633980  51.3414580  31.7962660  16.4373790  51.8268780  30.8461020
   2.1943460  58.6147550  35.3540930   2.0741060  59.3409640  34.7422200
   1.8844350  57.8450460  34.8768840  17.6305350  66.7413940  48.7487980
  18.1065070  67.2196830  49.4277060  18.2512510  66.6731430  48.0233480
  17.0338600  63.9326790  45.9087990  17.1601660  63.6938670  44.9905170
  17.0759980  63.1011330  46.3810070  10.8955340  67.6354790  44.4782800
  11.4100010  67.5462800  45.2805230  10.0524420  67.9814490  44.7710710
  12.8709740  67.9210130  33.9066800  12.7110880  67.6313070  34.8048630
  12.7056450  67.1450260  33.3712030   5.3498120  67.7008660  35.6838420
   5.1740600  66.7844200  35.4706220   4.4953860  68.0595950  35.9236220
  12.5735870  65.4297690  32.4664800  11.8801030  65.4274980  31.8067080
  13.3158730  65.0057010  32.0358970  12.1385800  67.0560400  36.5413290
  12.5942750  66.2749780  36.8551910  12.4778320  67.7667220  37.0854470
  16.8862610  55.9859250  46.8737730  16.2706880  56.4938920  46.3453190
  16.5659030  55.0857580  46.8163670   4.6607120  51.9582620  38.7364600
   4.2175270  52.7392160  38.4049120   5.2192110  52.2812510  39.4435540
   8.9476930  54.8251140  44.3399920   8.4856300  55.0334160  45.1519860
   8.5455040  54.0110490  44.0370590  13.9481440  56.0460090  45.4696580
  13.0975030  55.7465840  45.7905650  13.7883230  56.2902100  44.5580400
  11.0431150  57.5461840  47.5695370  11.3684560  56.7125590  47.2297600
  11.8311480  58.0690360  47.7173700   7.7765940  51.5793320  33.6170430
   7.1520120  51.5753190  34.3423740   7.6896060  50.7124280  33.2206400
   6.6983020  52.5029950  40.5954200   6.9955350  53.4092780  40.5146220
   7.2468580  52.0148730  39.9813770   4.4521340  57.0816190  36.4645850
   4.2262260  56.8653360  37.3692470   3.6713870  57.5144650  36.1191820
  11.6819100  57.0879560  35.0636500  11.0827990  57.8115360  34.8800120
  12.2298710  57.0256340  34.2812950   6.8920550  57.9801770  47.1306120
   6.7964150  57.0396500  46.9806520   7.7352530  58.2016840  46.7354190
  10.2883970  55.7243100  37.0939780  10.6813540  56.0415300  36.2808470
  10.6500820  54.8454980  37.2084300   8.5976140  54.4750410  48.3536640
   7.9074460  54.2822610  48.9882730   9.3408440  54.7585050  48.8860940
  10.8739110  58.3148850  41.1890560  10.1420230  58.8235660  41.5380660
  10.4763450  57.4978830  40.8879340   7.3116500  54.9903050  39.5943050
   7.3152560  54.5493000  38.7447590   8.2067620  55.3120380  39.7014870
   3.1618880  54.8729540  38.5537260   2.8218930  55.3504770  39.3104310
   2.3996200  54.4194660  38.1938360   7.3736650  55.9915130  32.5849810
   7.4949470  55.9501610  33.5335630   6.9885160  56.8539280  32.4296540
  11.3365020  53.7682530  40.6013500  11.3537760  54.2191180  41.4455350
  11.0880600  52.8688170  40.8146940   6.3858150  58.3016270  31.9833110
   5.8175050  57.8534520  31.3569020   7.0947150  58.6609050  31.4498260
  14.7635770  51.1814710  46.4399880  15.0881540  50.4504370  46.9657860
  14.7992280  50.8628350  45.5380870   7.6124470  59.0504830  41.3408460
   7.9794600  58.5763400  42.0869800   7.4229530  59.9246400  41.6816800
   5.4023840  58.0913470  43.6592670   5.0980910  58.9705450  43.8843030
   6.3570300  58.1513260  43.6950110   3.9305630  62.2974460  34.2559520
   3.1567890  61.7572080  34.0958240   4.6600260  61.7781070  33.9177280
  14.6893610  61.2939820  40.0485910  15.4092730  61.7895110  39.6582020
  14.4875430  60.6157710  39.4039780  10.1503550  52.6877780  34.1915300
   9.3368160  52.1890950  34.1160610   9.9565500  53.5276030  33.7751650
  10.0712410  61.3648880  45.9354910  10.0049720  60.4444550  45.6812500
   9.4417550  61.4624320  46.6499550  12.8651940  57.0597430  32.4877460
  13.7531560  57.3714660  32.3128800  12.8357030  56.1869680  32.0958040
   3.9743030  61.9654840  37.8938330   4.4921700  61.1623100  37.8395220
   3.5227050  61.9033980  38.7355160   8.8612530  63.2321120  33.1665630
   9.2028230  63.9763350  32.6708950   8.0325240  63.5452240  33.5290460
   4.6600690  59.3900450  47.6903580   4.3600830  59.5357630  46.7931400
   5.4311930  58.8305740  47.5976970  10.0029140  64.1869450  45.6858710
  10.0173680  63.2550410  45.4677620   9.2954240  64.2729210  46.3248480
  15.1366210  58.3709270  31.9557320  15.0529930  58.8023490  31.1053760
  15.8560400  58.8307620  32.3884140  16.2140350  60.8276790  45.0327290
  15.4888540  61.4205570  44.8356680  16.7415810  60.8200330  44.2340660
  16.1653460  65.2251530  34.6839450  15.5229620  64.5707150  34.9583170
  15.7784120  65.6306620  33.9080120  11.7439940  62.5536960  38.5311140
  12.0963760  61.9565090  37.8712510  10.8602270  62.2281190  38.7019390
   7.8303220  63.3134650  35.9381550   8.5174350  63.8603860  36.3189140
   7.0435640  63.8575380  35.9731160   7.1330430  60.3180680  35.5506910
   7.5893210  61.1285930  35.7767100   6.7818640  60.0003820  36.3825400
   9.4363040  65.8287020  42.7799210  10.0805260  66.0346400  43.4572630
   9.7992480  65.0675420  42.3270060   3.0342210  50.6618330  36.0229430
   2.9056840  50.6536230  36.9714350   2.2104230  51.0001420  35.6720440
  10.7095120  63.8319370  41.4976660  11.3517350  63.1312530  41.6108830
  11.2344470  64.6117810  41.3173550  14.5550840  64.1167990  31.2215800
  14.3288420  63.3998430  31.8140440  14.1647040  63.8680430  30.3837550
  12.4832740  64.6314270  44.7012720  12.8188980  65.2180960  45.3790640
  11.5633080  64.5006980  44.9310510  14.1367090  62.0339930  32.8829960
  13.8488790  62.4952620  33.6707840  14.9319260  61.5737700  33.1514180
   8.3121320  64.6805600  47.8700780   7.9918190  63.9614840  48.4146470
   7.6379680  65.3560670  47.9436840   6.3535490  65.5266050  32.8133930
   6.3445590  66.2595740  32.1978440   5.4333850  65.2797630  32.9060890
  11.5274920  54.9131760  43.2337580  11.8955740  54.0926970  43.5617150
  10.6673120  54.9733650  43.6493230  14.8936950  53.8688700  34.0425140
  14.2650110  53.9734370  33.3283370  14.3988870  54.0885480  34.8319020
   9.3395090  65.5894290  31.4759120   9.4407070  65.3858280  30.5461100
   8.4396830  65.3352570  31.6806900   6.8620980  56.1474650  35.4583020
   6.1537130  56.6160990  35.8996630   7.1465460  55.4896660  36.0928210
   8.4876910  57.5671350  43.4575550   8.9862160  58.0417170  44.1227400
   8.6299860  56.6434870  43.6645580  10.8936410  52.8725310  36.8978810
  10.7704190  52.8911440  35.9488320  11.8420970  52.9204250  37.0177210
   7.9813200  68.1080610  36.1706790   8.2354700  68.0702000  35.2486160
   7.0325680  67.9813940  36.1635040   5.0656000  54.4559730  32.8333730
   5.9146530  54.8929880  32.7673920   4.6987270  54.7679990  33.6605790
  15.6943770  53.7839310  44.3003940  15.1917370  54.5244710  44.6397750
  16.5100430  54.1723310  43.9840730  13.9865780  59.0272490  37.7465300
  13.0455920  59.0422720  37.9212990  14.3009850  58.2408450  38.1925600
   3.9647420  60.7092090  31.3069260   4.7310690  60.5973450  31.8694690
   4.0422110  60.0130060  30.6546030   2.6594180  58.1417160  31.9902150
   2.7397770  57.1944670  32.1019550   3.5513930  58.4724040  32.0962810
  15.9891360  66.1981340  39.4219560  16.1138780  67.0212510  39.8943370
  16.8556920  65.9872070  39.0743710   3.4608890  68.2912550  39.0936690
   4.1971370  67.7428010  39.3645260   3.8449810  69.1568560  38.9542680
   2.4667170  67.4758620  48.2822270   3.2679900  67.7970670  48.6957670
   1.9518990  67.1154200  49.0042180   6.5711200  67.4642860  30.9162260
   7.3639810  67.7531690  30.4644050   6.0515550  67.0335030  30.2374740
  11.3031800  63.5838490  48.2297680  10.6969960  63.6070090  47.4893430
  10.9985910  62.8521530  48.7664930  12.7332170  67.3118780  46.8407090
  13.6853920  67.2276800  46.7907330  12.5860390  67.9760490  47.5140880
  15.6241370  66.6912990  32.3399000  15.3382880  66.2778130  31.5253180
  15.4260920  67.6200700  32.2199520   7.0888600  62.6846270  30.7804610
   6.9839240  62.0698620  31.5065990   6.9212820  62.1612160  29.9967620
   7.2402920  61.3703070  46.7593840   6.4748590  61.9388070  46.6748510
   7.4218880  61.0779280  45.8662070  10.3291330  61.7466300  31.3846600
   9.7801430  62.1935600  32.0289340  10.9510590  61.2415550  31.9084270
  14.3826270  63.1008400  47.3168860  15.1235740  63.4384160  46.8136320
  13.6198950  63.2700460  46.7638630   2.2188060  58.1061670  48.1208390
   2.2593400  57.8075540  49.0293620   3.0733560  58.5069280  47.9615910
   5.9966450  60.7057220  33.2811900   6.4182870  60.5397090  34.1243290
   6.1217290  59.8957450  32.7867040   4.1593870  56.6853770  46.0882880
   3.6290330  56.1944720  45.4606220   4.8281940  57.1137970  45.5540810
   8.5094090  59.7294830  30.5289000   9.0299750  59.0143850  30.1630150
   9.1562490  60.3680700  30.8289510  13.0571930  61.1523230  45.8524070
  13.4712950  61.3068310  46.7014490  12.1222930  61.2778450  46.0149850
  13.5294100  58.4919390  47.8563220  14.1114870  57.7371710  47.7683700
  13.7055870  59.0226830  47.0794700   4.6466170  53.6516140  46.1680170
   4.5523040  53.0336890  45.4431040   4.0663560  54.3782430  45.9410080
   7.4127610  52.2089380  43.2007560   6.9644910  52.2313640  42.3553110
   6.7792810  51.8108400  43.7977860   7.8187160  61.1043710  43.8220000
   8.2375270  61.9476440  43.6496240   6.8995790  61.2415750  43.5926780
  10.1551060  58.8359890  45.2057840  10.2747270  58.2401030  45.9452680
  11.0145060  58.8729580  44.7859140  12.4938960  59.3897080  43.7820350
  11.9674180  59.9139700  43.1785490  12.8370300  60.0224470  44.4130080
   4.8925350  56.7790450  30.2270060   4.6914410  55.9157810  30.5883400
   4.7217400  56.6923810  29.2891660   5.6694580  67.4096720  44.9377730
   5.1315670  68.1342780  44.6186430   5.9228540  66.9327060  44.1475070
   6.9219830  55.3781240  46.4633660   7.5119520  55.0697090  47.1511480
   6.1040070  54.9060990  46.6193560  11.7413260  54.9947050  46.6966680
  11.0528780  54.3328590  46.6316670  12.4619280  54.5485320  47.1415140
  12.3713660  51.5898680  32.7556940  12.6515950  50.7466580  33.1116360
  11.5979390  51.8221790  33.2695690   3.6908150  53.8791070  30.2147940
   3.9934050  53.8858500  29.3067090   4.4302740  53.5288930  30.7115600
   8.5256790  68.6447930  45.1964380   8.4515490  69.5483070  45.5036750
   7.6235630  68.3259830  45.1686450   6.9093080  52.8225690  31.2004140
   6.5615080  52.1449680  30.6206590   7.1105850  52.3615200  32.0147530
   9.0742120  67.8106440  32.8190740   9.9692910  68.1491410  32.8409500
   9.1059750  67.0885850  32.1915020   2.7138280  63.1833490  31.0477740
   3.1513150  63.7263160  31.7035320   3.1986010  62.3580440  31.0574080
   4.5246000  64.3031530  36.1599970   4.2241540  64.1796500  37.0603880
   4.4183490  63.4440120  35.7515700  16.0536470  66.3410110  45.5256940
  15.4538460  66.4002670  44.7820860  16.1830370  65.4015090  45.6553790
  17.2937920  64.0827930  30.8626650  16.4630880  64.1504580  31.3333880
  17.4709750  64.9732050  30.5593510  16.7494380  60.8275410  33.3660850
  17.5113290  61.3972060  33.4720540  16.7648750  60.2602610  34.1369160
  17.7554350  61.6825510  38.2102780  18.1263180  60.8992830  37.8038750
  18.3956280  62.3714610  38.0320080  14.7388110  63.0662090  43.6233100
  13.9247950  63.4959250  43.8858890  15.1462310  63.6780500  43.0102150
  16.8013550  61.1209780  30.5233370  17.0762390  62.0288660  30.3952590
  16.6124290  61.0572310  31.4595360  13.1989160  54.1454630  31.8187000
  13.6174040  53.9585610  30.9783660  12.8925220  53.2933680  32.1289930
  16.6978890  59.0578770  35.5162800  16.3222490  58.2906700  35.0844090
  15.9682010  59.4401470  36.0037730  16.0878510  58.2050290  45.1502320
  15.8564600  57.9763040  44.2500270  16.3483060  59.1249840  45.1047210
  14.5266580  53.4306720  47.9282020  15.4036760  53.4390120  48.3116020
  14.5387420  52.6937560  47.3174370  15.9729850  57.2836260  38.8170040
  16.4967330  56.7898910  38.1860210  16.5589270  57.4186620  39.5617610
  16.1519570  57.3676130  42.3389590  15.2022280  57.3339670  42.4534580
  16.3332580  58.2776240  42.1039360  15.4629820  56.5409610  34.7562450
  15.9588940  56.3080480  35.5411330  15.2645890  55.7021450  34.3400090
  16.8916980  55.1770560  37.2900130  16.7816260  55.0226600  38.2282400
  17.6524570  54.6491500  37.0475540  15.2382700  51.1164690  43.7483130
  15.8754920  51.7298830  44.1142320  15.3857590  51.1525350  42.8032360
  17.7807250  53.0078480  30.5306270  18.7056560  52.8759660  30.3224560
  17.7583040  53.0871300  31.4842720  17.8545740  53.7789140  33.1562980
  17.0597240  53.7134260  33.6855890  18.0589020  54.7139780  33.1448330
  14.7964160  67.8180690  37.1501370  15.3923230  67.4965260  36.4735790
  15.0542310  67.3452510  37.9414640   2.7026730  64.2498600  47.2992000
   2.6596360  63.8791510  48.1806460   2.8337740  65.1876170  47.4393820
   6.4032760  65.8058190  42.9001720   6.1624120  66.0732750  42.0132240
   7.3435400  65.9763920  42.9552580   8.6087180  52.2690880  46.6558230
   8.5476070  52.8612710  47.4053640   9.5487560  52.1616840  46.5108490
  11.2461740  51.9260940  46.2950520  11.8602150  52.2440230  45.6331600
  11.7911300  51.4409530  46.9146380  17.6636920  67.8252570  43.7012360
  17.1695200  68.2221440  42.9839490  17.0550210  67.2001780  44.0949640
   1.7683000  50.6055200  46.4089580   2.3165990  50.4243250  45.6455690
   1.8338310  49.8149310  46.9445890   2.5414760  67.1960850  44.4189780
   1.9475080  67.0645550  45.1579820   2.5338600  66.3598990  43.9531880
  11.9869780  50.4893080  42.6219810  11.1129620  50.8228190  42.4192740
  11.8780530  50.0166260  43.4471680  12.8941760  52.6963950  44.0061530
  12.5655120  51.8815710  43.6263260  13.8424060  52.6533760  43.8827220
  15.3476370  68.4675990  40.9799100  14.8879340  69.2191800  40.6057120
  14.7188830  67.7482460  40.9213900   5.7772090  66.7764230  40.1547230
   6.2937110  66.1651590  39.6295490   6.4269470  67.2793010  40.6458240
   8.5167590  67.6672720  40.9816210   8.8045400  67.4127020  40.1049220
   9.0290810  67.1150080  41.5721780   9.7344600  51.4062920  41.5612720
   8.9516390  51.8808420  41.8409480   9.4407530  50.5017750  41.4525900
  14.2865670  52.1086020  39.6061810  14.7273760  52.0531120  38.7583410
  14.0173260  53.0244030  39.6771990  16.1504240  51.7401260  37.6170630
  16.0892640  50.7962480  37.4701650  16.9296270  51.8481350  38.1624090
   7.6198820  53.8249670  37.0728750   6.8073330  53.4506560  36.7324630
   8.1240460  53.0694750  37.3749940  12.1223800  50.4892120  38.3111820
  12.7253170  51.0612330  38.7860340  11.3816790  51.0531560  38.0885720
  15.2658400  50.8913680  33.5852100  15.4609030  51.7897130  33.8519530
  14.4788270  50.6600760  34.0785050   3.4510160  52.2374450  32.6228410
   3.9802920  51.4504250  32.4936360   4.0838480  52.9165640  32.8563940
   5.6448000  51.9749590  35.6773800   5.0150740  51.2736900  35.8443930
   5.1053140  52.7353720  35.4606960   8.5839950  68.5888820  48.3484410
   9.5107260  68.3533090  48.3920370   8.5690380  69.4160820  47.8670440
  16.8185010  68.1314390  35.3458660  16.9937200  67.4452130  34.7019580
  16.1206580  68.6561440  34.9535330   5.7703560  51.2533570  48.1126290
   5.4887830  51.7567170  47.3487110   6.1523260  50.4555320  47.7468420
   4.6612660  68.5209230  32.8993970   5.3931480  68.2368510  32.3517860
   4.9206330  68.2822510  33.7893350   3.8227450  64.6373960  32.9040300
   3.1936330  65.1059060  33.4526130   3.9375280  63.7923180  33.3386490
  12.3719020  50.6687150  48.6906760  12.2584470  50.9881760  49.5858280
  13.1888760  51.0699660  48.3944040  15.1517510  67.8158680  48.1725450
  15.9442830  67.3207910  47.9651410  15.4450660  68.4948820  48.7801060
  11.2777170  58.6879620  19.0541500  11.1971220  57.7734230  18.7833210
  10.8641590  59.1846690  18.3481210   9.4095210  60.4658640  20.9350770
   8.6337310  59.9859080  21.2249340  10.0608140  59.7864290  20.7606930
   3.4261040  60.7778450  21.8126530   2.5945920  60.5227160  22.2123040
   4.0342020  60.8489220  22.5484450  13.4302640  64.8718830  19.7149900
  12.9684170  64.1006070  20.0437070  14.2428190  64.8984900  20.2202350
   3.4062300  64.8118540  22.0084550   3.7090340  63.9216280  21.8294770
   4.1505890  65.3688760  21.7806800   9.6565950  67.1576840  19.3353890
   9.0377390  67.6134340  18.7648330  10.5117730  67.3128300  18.9343590
   8.8504200  63.1415830  20.9420930   8.7812480  62.2005770  20.7810060
   9.6124060  63.2317240  21.5143500   9.8809370  55.9486210  21.1689860
  10.2574190  55.0758090  21.0563530   9.7828880  56.2844910  20.2780300
   4.0114380  54.3211840  16.6307300   4.1181130  55.2215570  16.9376060
   3.1006740  54.2729810  16.3401950  13.6633490  53.4436650  18.1018200
  14.4843110  52.9533220  18.1443680  13.6967570  54.0334310  18.8550040
   5.8522110  57.2898210  20.9632480   6.3600330  57.7879180  21.6037500
   6.3835350  56.5133410  20.7871840  17.9533040  55.4603400  24.6661830
  17.2485210  55.8485110  24.1476940  18.2190960  56.1553690  25.2682760
   4.1358210  51.9296770  25.2295900   4.1376650  52.4469160  24.4241800
   3.3062520  51.4526950  25.2065830  10.5229300  62.0416080  16.7285800
   9.9046570  62.5065530  16.1648520  11.0352550  62.7343560  17.1455310
   5.3861060  61.5691950  23.4069400   5.0530440  62.1960870  24.0490470
   5.5627740  62.0953830  22.6271070  13.8994970  55.3837030  20.8745740
  13.1950540  55.6721920  21.4548850  14.2607130  56.1937140  20.5145300
   3.8173540  53.6406730  23.2366350   4.1590350  54.4848780  22.9420220
   2.8789350  53.7890470  23.3531690   4.5980160  63.5372750  25.2218580
   5.2154160  64.2123830  24.9403030   3.7373280  63.9460730  25.1306080
  15.5157750  65.0012160  23.1373220  14.8321270  65.6711270  23.1289890
  16.0552040  65.1992810  22.3718080  16.9681890  54.8291820  21.2654950
  16.0206800  54.8630800  21.3970380  17.2931880  55.6430770  21.6504310
   7.5001430  51.1289000  19.5610940   7.8076410  50.5735890  18.8446440
   6.5702130  51.2633460  19.3783930  13.0516490  66.8456290  21.8518400
  13.0643650  66.4418580  20.9840660  12.4991710  67.6203580  21.7479830
  14.3461910  63.5672510  16.9408570  14.2358240  62.6246840  17.0657990
  14.3430160  63.9288150  17.8271330  12.4501930  61.7486130  23.1801010
  12.8670720  61.5346240  22.3454470  13.1741750  62.0058920  23.7509630
   9.8882190  59.1937830  16.2971060   8.9611470  59.1275210  16.5259530
  10.0407010  60.1317960  16.1826300   9.8751270  55.4654830  13.2938220
   8.9354940  55.6268790  13.3790680  10.1934530  56.1840510  12.7474210
  16.3964030  60.1473350  23.2717250  15.5682660  60.2166440  22.7967380
  16.9914510  60.7327660  22.8033080  13.9179480  60.7558130  16.8006310
  13.2991900  60.4177680  16.1532610  13.9003930  60.1117890  17.5085500
  13.3606040  56.9342670  24.2172120  12.9477220  57.7596380  24.4712110
  12.6281990  56.3487710  24.0248480   5.4938830  59.7202570  19.0790790
   5.0895830  59.0079820  18.5836690   5.5801950  59.3755810  19.9678830
   5.9620530  63.4070130  21.2430000   5.6648820  62.8015600  20.5637780
   6.9120350  63.4447440  21.1319360   4.2067450  56.4945780  22.8589830
   4.7582040  56.6041120  22.0843080   4.7210960  56.8683380  23.5745060
  14.0506140  66.9802000  24.9053100  13.5736700  67.7874190  24.7125710
  13.3667930  66.3280330  25.0579310   5.0538960  63.1451820  27.8937800
   4.1567490  63.3691790  28.1411200   5.0791830  63.2686760  26.9449200
  12.0944180  59.9944940  13.8079060  12.5337460  59.1567370  13.6616880
  12.8072600  60.6274340  13.8943200   3.8810180  60.0165140  26.4695170
   3.7417950  60.8887940  26.8382570   2.9991540  59.6737950  26.3243110
  10.2039560  64.9341010  17.7760300  10.6435470  65.6765340  17.3615690
  10.1426450  65.1767580  18.6999260   5.6790530  65.9586840  28.6780320
   5.6505960  66.3629790  27.8108750   5.5155500  65.0297200  28.5151920
  15.6761320  51.2487750  12.1220100  15.3633980  51.3414580  13.0219170
  16.4373790  51.8268780  12.0717530   2.1943460  58.6147550  16.5797440
   2.0741060  59.3409640  15.9678710   1.8844350  57.8450460  16.1025350
  17.6305350  66.7413940  29.9744490  18.1065070  67.2196830  30.6533570
  18.2512510  66.6731430  29.2489990  17.0338600  63.9326790  27.1344500
  17.1601660  63.6938670  26.2161680  17.0759980  63.1011330  27.6066580
  10.8955340  67.6354790  25.7039310  11.4100010  67.5462800  26.5061740
  10.0524420  67.9814490  25.9967220  12.8709740  67.9210130  15.1323310
  12.7110880  67.6313070  16.0305140  12.7056450  67.1450260  14.5968540
   5.3498120  67.7008660  16.9094930   5.1740600  66.7844200  16.6962730
   4.4953860  68.0595950  17.1492730  12.5735870  65.4297690  13.6921310
  11.8801030  65.4274980  13.0323590  13.3158730  65.0057010  13.2615480
  12.1385800  67.0560400  17.7669800  12.5942750  66.2749780  18.0808420
  12.4778320  67.7667220  18.3110980  16.8862610  55.9859250  28.0994240
  16.2706880  56.4938920  27.5709700  16.5659030  55.0857580  28.0420180
   4.6607120  51.9582620  19.9621110   4.2175270  52.7392160  19.6305630
   5.2192110  52.2812510  20.6692050   8.9476930  54.8251140  25.5656430
   8.4856300  55.0334160  26.3776370   8.5455040  54.0110490  25.2627100
  13.9481440  56.0460090  26.6953090  13.0975030  55.7465840  27.0162160
  13.7883230  56.2902100  25.7836910  11.0431150  57.5461840  28.7951880
  11.3684560  56.7125590  28.4554110  11.8311480  58.0690360  28.9430210
   7.7765940  51.5793320  14.8426940   7.1520120  51.5753190  15.5680250
   7.6896060  50.7124280  14.4462910   6.6983020  52.5029950  21.8210710
   6.9955350  53.4092780  21.7402730   7.2468580  52.0148730  21.2070280
   4.4521340  57.0816190  17.6902360   4.2262260  56.8653360  18.5948980
   3.6713870  57.5144650  17.3448330  11.6819100  57.0879560  16.2893010
  11.0827990  57.8115360  16.1056630  12.2298710  57.0256340  15.5069460
   6.8920550  57.9801770  28.3562630   6.7964150  57.0396500  28.2063030
   7.7352530  58.2016840  27.9610700  10.2883970  55.7243100  18.3196290
  10.6813540  56.0415300  17.5064980  10.6500820  54.8454980  18.4340810
   8.5976140  54.4750410  29.5793150   7.9074460  54.2822610  30.2139240
   9.3408440  54.7585050  30.1117450  10.8739110  58.3148850  22.4147070
  10.1420230  58.8235660  22.7637170  10.4763450  57.4978830  22.1135850
   7.3116500  54.9903050  20.8199560   7.3152560  54.5493000  19.9704100
   8.2067620  55.3120380  20.9271380   3.1618880  54.8729540  19.7793770
   2.8218930  55.3504770  20.5360820   2.3996200  54.4194660  19.4194870
   7.3736650  55.9915130  13.8106320   7.4949470  55.9501610  14.7592140
   6.9885160  56.8539280  13.6553050  11.3365020  53.7682530  21.8270010
  11.3537760  54.2191180  22.6711860  11.0880600  52.8688170  22.0403450
   6.3858150  58.3016270  13.2089620   5.8175050  57.8534520  12.5825530
   7.0947150  58.6609050  12.6754770  14.7635770  51.1814710  27.6656390
  15.0881540  50.4504370  28.1914370  14.7992280  50.8628350  26.7637380
   7.6124470  59.0504830  22.5664970   7.9794600  58.5763400  23.3126310
   7.4229530  59.9246400  22.9073310   5.4023840  58.0913470  24.8849180
   5.0980910  58.9705450  25.1099540   6.3570300  58.1513260  24.9206620
   3.9305630  62.2974460  15.4816030   3.1567890  61.7572080  15.3214750
   4.6600260  61.7781070  15.1433790  14.6893610  61.2939820  21.2742420
  15.4092730  61.7895110  20.8838530  14.4875430  60.6157710  20.6296290
  10.1503550  52.6877780  15.4171810   9.3368160  52.1890950  15.3417120
   9.9565500  53.5276030  15.0008160  10.0712410  61.3648880  27.1611420
  10.0049720  60.4444550  26.9069010   9.4417550  61.4624320  27.8756060
  12.8651940  57.0597430  13.7133970  13.7531560  57.3714660  13.5385310
  12.8357030  56.1869680  13.3214550   3.9743030  61.9654840  19.1194840
   4.4921700  61.1623100  19.0651730   3.5227050  61.9033980  19.9611670
   8.8612530  63.2321120  14.3922140   9.2028230  63.9763350  13.8965460
   8.0325240  63.5452240  14.7546970   4.6600690  59.3900450  28.9160090
   4.3600830  59.5357630  28.0187910   5.4311930  58.8305740  28.8233480
  10.0029140  64.1869450  26.9115220  10.0173680  63.2550410  26.6934130
   9.2954240  64.2729210  27.5504990  15.1366210  58.3709270  13.1813830
  15.0529930  58.8023490  12.3310270  15.8560400  58.8307620  13.6140650
  16.2140350  60.8276790  26.2583800  15.4888540  61.4205570  26.0613190
  16.7415810  60.8200330  25.4597170  16.1653460  65.2251530  15.9095960
  15.5229620  64.5707150  16.1839680  15.7784120  65.6306620  15.1336630
  11.7439940  62.5536960  19.7567650  12.0963760  61.9565090  19.0969020
  10.8602270  62.2281190  19.9275900   7.8303220  63.3134650  17.1638060
   8.5174350  63.8603860  17.5445650   7.0435640  63.8575380  17.1987670
   7.1330430  60.3180680  16.7763420   7.5893210  61.1285930  17.0023610
   6.7818640  60.0003820  17.6081910   9.4363040  65.8287020  24.0055720
  10.0805260  66.0346400  24.6829140   9.7992480  65.0675420  23.5526570
   3.0342210  50.6618330  17.2485940   2.9056840  50.6536230  18.1970860
   2.2104230  51.0001420  16.8976950  10.7095120  63.8319370  22.7233170
  11.3517350  63.1312530  22.8365340  11.2344470  64.6117810  22.5430060
  14.5550840  64.1167990  12.4472310  14.3288420  63.3998430  13.0396950
  14.1647040  63.8680430  11.6094060  12.4832740  64.6314270  25.9269230
  12.8188980  65.2180960  26.6047150  11.5633080  64.5006980  26.1567020
  14.1367090  62.0339930  14.1086470  13.8488790  62.4952620  14.8964350
  14.9319260  61.5737700  14.3770690   8.3121320  64.6805600  29.0957290
   7.9918190  63.9614840  29.6402980   7.6379680  65.3560670  29.1693350
   6.3535490  65.5266050  14.0390440   6.3445590  66.2595740  13.4234950
   5.4333850  65.2797630  14.1317400  11.5274920  54.9131760  24.4594090
  11.8955740  54.0926970  24.7873660  10.6673120  54.9733650  24.8749740
  14.8936950  53.8688700  15.2681650  14.2650110  53.9734370  14.5539880
  14.3988870  54.0885480  16.0575530   9.3395090  65.5894290  12.7015630
   9.4407070  65.3858280  11.7717610   8.4396830  65.3352570  12.9063410
   6.8620980  56.1474650  16.6839530   6.1537130  56.6160990  17.1253140
   7.1465460  55.4896660  17.3184720   8.4876910  57.5671350  24.6832060
   8.9862160  58.0417170  25.3483910   8.6299860  56.6434870  24.8902090
  10.8936410  52.8725310  18.1235320  10.7704190  52.8911440  17.1744830
  11.8420970  52.9204250  18.2433720   7.9813200  68.1080610  17.3963300
   8.2354700  68.0702000  16.4742670   7.0325680  67.9813940  17.3891550
   5.0656000  54.4559730  14.0590240   5.9146530  54.8929880  13.9930430
   4.6987270  54.7679990  14.8862300  15.6943770  53.7839310  25.5260450
  15.1917370  54.5244710  25.8654260  16.5100430  54.1723310  25.2097240
  13.9865780  59.0272490  18.9721810  13.0455920  59.0422720  19.1469500
  14.3009850  58.2408450  19.4182110   3.9647420  60.7092090  12.5325770
   4.7310690  60.5973450  13.0951200   4.0422110  60.0130060  11.8802540
   2.6594180  58.1417160  13.2158660   2.7397770  57.1944670  13.3276060
   3.5513930  58.4724040  13.3219320  15.9891360  66.1981340  20.6476070
  16.1138780  67.0212510  21.1199880  16.8556920  65.9872070  20.3000220
   3.4608890  68.2912550  20.3193200   4.1971370  67.7428010  20.5901770
   3.8449810  69.1568560  20.1799190   2.4667170  67.4758620  29.5078780
   3.2679900  67.7970670  29.9214180   1.9518990  67.1154200  30.2298690
   6.5711200  67.4642860  12.1418770   7.3639810  67.7531690  11.6900560
   6.0515550  67.0335030  11.4631250  11.3031800  63.5838490  29.4554190
  10.6969960  63.6070090  28.7149940  10.9985910  62.8521530  29.9921440
  12.7332170  67.3118780  28.0663600  13.6853920  67.2276800  28.0163840
  12.5860390  67.9760490  28.7397390  15.6241370  66.6912990  13.5655510
  15.3382880  66.2778130  12.7509690  15.4260920  67.6200700  13.4456030
   7.0888600  62.6846270  12.0061120   6.9839240  62.0698620  12.7322500
   6.9212820  62.1612160  11.2224130   7.2402920  61.3703070  27.9850350
   6.4748590  61.9388070  27.9005020   7.4218880  61.0779280  27.0918580
  10.3291330  61.7466300  12.6103110   9.7801430  62.1935600  13.2545850
  10.9510590  61.2415550  13.1340780  14.3826270  63.1008400  28.5425370
  15.1235740  63.4384160  28.0392830  13.6198950  63.2700460  27.9895140
   2.2188060  58.1061670  29.3464900   2.2593400  57.8075540  30.2550130
   3.0733560  58.5069280  29.1872420   5.9966450  60.7057220  14.5068410
   6.4182870  60.5397090  15.3499800   6.1217290  59.8957450  14.0123550
   4.1593870  56.6853770  27.3139390   3.6290330  56.1944720  26.6862730
   4.8281940  57.1137970  26.7797320   8.5094090  59.7294830  11.7545510
   9.0299750  59.0143850  11.3886660   9.1562490  60.3680700  12.0546020
  13.0571930  61.1523230  27.0780580  13.4712950  61.3068310  27.9271000
  12.1222930  61.2778450  27.2406360  13.5294100  58.4919390  29.0819730
  14.1114870  57.7371710  28.9940210  13.7055870  59.0226830  28.3051210
   4.6466170  53.6516140  27.3936680   4.5523040  53.0336890  26.6687550
   4.0663560  54.3782430  27.1666590   7.4127610  52.2089380  24.4264070
   6.9644910  52.2313640  23.5809620   6.7792810  51.8108400  25.0234370
   7.8187160  61.1043710  25.0476510   8.2375270  61.9476440  24.8752750
   6.8995790  61.2415750  24.8183290  10.1551060  58.8359890  26.4314350
  10.2747270  58.2401030  27.1709190  11.0145060  58.8729580  26.0115650
  12.4938960  59.3897080  25.0076860  11.9674180  59.9139700  24.4042000
  12.8370300  60.0224470  25.6386590   4.8925350  56.7790450  11.4526570
   4.6914410  55.9157810  11.8139910   4.7217400  56.6923810  10.5148170
   5.6694580  67.4096720  26.1634240   5.1315670  68.1342780  25.8442940
   5.9228540  66.9327060  25.3731580   6.9219830  55.3781240  27.6890170
   7.5119520  55.0697090  28.3767990   6.1040070  54.9060990  27.8450070
  11.7413260  54.9947050  27.9223190  11.0528780  54.3328590  27.8573180
  12.4619280  54.5485320  28.3671650  12.3713660  51.5898680  13.9813450
  12.6515950  50.7466580  14.3372870  11.5979390  51.8221790  14.4952200
   3.6908150  53.8791070  11.4404450   3.9934050  53.8858500  10.5323600
   4.4302740  53.5288930  11.9372110   8.5256790  68.6447930  26.4220890
   8.4515490  69.5483070  26.7293260   7.6235630  68.3259830  26.3942960
   6.9093080  52.8225690  12.4260650   6.5615080  52.1449680  11.8463100
   7.1105850  52.3615200  13.2404040   9.0742120  67.8106440  14.0447250
   9.9692910  68.1491410  14.0666010   9.1059750  67.0885850  13.4171530
   2.7138280  63.1833490  12.2734250   3.1513150  63.7263160  12.9291830
   3.1986010  62.3580440  12.2830590   4.5246000  64.3031530  17.3856480
   4.2241540  64.1796500  18.2860390   4.4183490  63.4440120  16.9772210
  16.0536470  66.3410110  26.7513450  15.4538460  66.4002670  26.0077370
  16.1830370  65.4015090  26.8810300  17.2937920  64.0827930  12.0883160
  16.4630880  64.1504580  12.5590390  17.4709750  64.9732050  11.7850020
  16.7494380  60.8275410  14.5917360  17.5113290  61.3972060  14.6977050
  16.7648750  60.2602610  15.3625670  17.7554350  61.6825510  19.4359290
  18.1263180  60.8992830  19.0295260  18.3956280  62.3714610  19.2576590
  14.7388110  63.0662090  24.8489610  13.9247950  63.4959250  25.1115400
  15.1462310  63.6780500  24.2358660  16.8013550  61.1209780  11.7489880
  17.0762390  62.0288660  11.6209100  16.6124290  61.0572310  12.6851870
  13.1989160  54.1454630  13.0443510  13.6174040  53.9585610  12.2040170
  12.8925220  53.2933680  13.3546440  16.6978890  59.0578770  16.7419310
  16.3222490  58.2906700  16.3100600  15.9682010  59.4401470  17.2294240
  16.0878510  58.2050290  26.3758830  15.8564600  57.9763040  25.4756780
  16.3483060  59.1249840  26.3303720  14.5266580  53.4306720  29.1538530
  15.4036760  53.4390120  29.5372530  14.5387420  52.6937560  28.5430880
  15.9729850  57.2836260  20.0426550  16.4967330  56.7898910  19.4116720
  16.5589270  57.4186620  20.7874120  16.1519570  57.3676130  23.5646100
  15.2022280  57.3339670  23.6791090  16.3332580  58.2776240  23.3295870
  15.4629820  56.5409610  15.9818960  15.9588940  56.3080480  16.7667840
  15.2645890  55.7021450  15.5656600  16.8916980  55.1770560  18.5156640
  16.7816260  55.0226600  19.4538910  17.6524570  54.6491500  18.2732050
  15.2382700  51.1164690  24.9739640  15.8754920  51.7298830  25.3398830
  15.3857590  51.1525350  24.0288870  17.7807250  53.0078480  11.7562780
  18.7056560  52.8759660  11.5481070  17.7583040  53.0871300  12.7099230
  17.8545740  53.7789140  14.3819490  17.0597240  53.7134260  14.9112400
  18.0589020  54.7139780  14.3704840  14.7964160  67.8180690  18.3757880
  15.3923230  67.4965260  17.6992300  15.0542310  67.3452510  19.1671150
   2.7026730  64.2498600  28.5248510   2.6596360  63.8791510  29.4062970
   2.8337740  65.1876170  28.6650330   6.4032760  65.8058190  24.1258230
   6.1624120  66.0732750  23.2388750   7.3435400  65.9763920  24.1809090
   8.6087180  52.2690880  27.8814740   8.5476070  52.8612710  28.6310150
   9.5487560  52.1616840  27.7365000  11.2461740  51.9260940  27.5207030
  11.8602150  52.2440230  26.8588110  11.7911300  51.4409530  28.1402890
  17.6636920  67.8252570  24.9268870  17.1695200  68.2221440  24.2096000
  17.0550210  67.2001780  25.3206150   1.7683000  50.6055200  27.6346090
   2.3165990  50.4243250  26.8712200   1.8338310  49.8149310  28.1702400
   2.5414760  67.1960850  25.6446290   1.9475080  67.0645550  26.3836330
   2.5338600  66.3598990  25.1788390  11.9869780  50.4893080  23.8476320
  11.1129620  50.8228190  23.6449250  11.8780530  50.0166260  24.6728190
  12.8941760  52.6963950  25.2318040  12.5655120  51.8815710  24.8519770
  13.8424060  52.6533760  25.1083730  15.3476370  68.4675990  22.2055610
  14.8879340  69.2191800  21.8313630  14.7188830  67.7482460  22.1470410
   5.7772090  66.7764230  21.3803740   6.2937110  66.1651590  20.8552000
   6.4269470  67.2793010  21.8714750   8.5167590  67.6672720  22.2072720
   8.8045400  67.4127020  21.3305730   9.0290810  67.1150080  22.7978290
   9.7344600  51.4062920  22.7869230   8.9516390  51.8808420  23.0665990
   9.4407530  50.5017750  22.6782410  14.2865670  52.1086020  20.8318320
  14.7273760  52.0531120  19.9839920  14.0173260  53.0244030  20.9028500
  16.1504240  51.7401260  18.8427140  16.0892640  50.7962480  18.6958160
  16.9296270  51.8481350  19.3880600   7.6198820  53.8249670  18.2985260
   6.8073330  53.4506560  17.9581140   8.1240460  53.0694750  18.6006450
  12.1223800  50.4892120  19.5368330  12.7253170  51.0612330  20.0116850
  11.3816790  51.0531560  19.3142230  15.2658400  50.8913680  14.8108610
  15.4609030  51.7897130  15.0776040  14.4788270  50.6600760  15.3041560
   3.4510160  52.2374450  13.8484920   3.9802920  51.4504250  13.7192870
   4.0838480  52.9165640  14.0820450   5.6448000  51.9749590  16.9030310
   5.0150740  51.2736900  17.0700440   5.1053140  52.7353720  16.6863470
   8.5839950  68.5888820  29.5740920   9.5107260  68.3533090  29.6176880
   8.5690380  69.4160820  29.0926950  16.8185010  68.1314390  16.5715170
  16.9937200  67.4452130  15.9276090  16.1206580  68.6561440  16.1791840
   5.7703560  51.2533570  29.3382800   5.4887830  51.7567170  28.5743620
   6.1523260  50.4555320  28.9724930   4.6612660  68.5209230  14.1250480
   5.3931480  68.2368510  13.5774370   4.9206330  68.2822510  15.0149860
   3.8227450  64.6373960  14.1296810   3.1936330  65.1059060  14.6782640
   3.9375280  63.7923180  14.5643000  12.3719020  50.6687150  29.9163270
  12.2584470  50.9881760  30.8114790  13.1888760  51.0699660  29.6200550
  15.1517510  67.8158680  29.3981960  15.9442830  67.3207910  29.1907920
  15.4450660  68.4948820  30.0057570   9.4095210  60.4658640   2.1607280
   8.6337310  59.9859080   2.4505850  10.0608140  59.7864290   1.9863440
   3.4261040  60.7778450   3.0383040   2.5945920  60.5227160   3.4379550
   4.0342020  60.8489220   3.7740960   3.4062300  64.8118540   3.2341060
   3.7090340  63.9216280   3.0551280   4.1505890  65.3688760   3.0063310
   8.8504200  63.1415830   2.1677440   8.7812480  62.2005770   2.0066570
   9.6124060  63.2317240   2.7400010   9.8809370  55.9486210   2.3946370
  10.2574190  55.0758090   2.2820040   9.7828880  56.2844910   1.5036810
   5.8522110  57.2898210   2.1888990   6.3600330  57.7879180   2.8294010
   6.3835350  56.5133410   2.0128350  17.9533040  55.4603400   5.8918340
  17.2485210  55.8485110   5.3733450  18.2190960  56.1553690   6.4939270
   4.1358210  51.9296770   6.4552410   4.1376650  52.4469160   5.6498310
   3.3062520  51.4526950   6.4322340   5.3861060  61.5691950   4.6325910
   5.0530440  62.1960870   5.2746980   5.5627740  62.0953830   3.8527580
  13.8994970  55.3837030   2.1002250  13.1950540  55.6721920   2.6805360
  14.2607130  56.1937140   1.7401810   3.8173540  53.6406730   4.4622860
   4.1590350  54.4848780   4.1676730   2.8789350  53.7890470   4.5788200
   4.5980160  63.5372750   6.4475090   5.2154160  64.2123830   6.1659540
   3.7373280  63.9460730   6.3562590  15.5157750  65.0012160   4.3629730
  14.8321270  65.6711270   4.3546400  16.0552040  65.1992810   3.5974590
  16.9681890  54.8291820   2.4911460  16.0206800  54.8630800   2.6226890
  17.2931880  55.6430770   2.8760820  13.0516490  66.8456290   3.0774910
  13.0643650  66.4418580   2.2097170  12.4991710  67.6203580   2.9736340
  12.4501930  61.7486130   4.4057520  12.8670720  61.5346240   3.5710980
  13.1741750  62.0058920   4.9766140  16.3964030  60.1473350   4.4973760
  15.5682660  60.2166440   4.0223890  16.9914510  60.7327660   4.0289590
  13.3606040  56.9342670   5.4428630  12.9477220  57.7596380   5.6968620
  12.6281990  56.3487710   5.2504990   5.9620530  63.4070130   2.4686510
   5.6648820  62.8015600   1.7894290   6.9120350  63.4447440   2.3575870
   4.2067450  56.4945780   4.0846340   4.7582040  56.6041120   3.3099590
   4.7210960  56.8683380   4.8001570  14.0506140  66.9802000   6.1309610
  13.5736700  67.7874190   5.9382220  13.3667930  66.3280330   6.2835820
   5.0538960  63.1451820   9.1194310   4.1567490  63.3691790   9.3667710
   5.0791830  63.2686760   8.1705710   3.8810180  60.0165140   7.6951680
   3.7417950  60.8887940   8.0639080   2.9991540  59.6737950   7.5499620
   5.6790530  65.9586840   9.9036830   5.6505960  66.3629790   9.0365260
   5.5155500  65.0297200   9.7408430  17.6305350  66.7413940  11.2001000
  18.1065070  67.2196830  11.8790080  18.2512510  66.6731430  10.4746500
  17.0338600  63.9326790   8.3601010  17.1601660  63.6938670   7.4418190
  17.0759980  63.1011330   8.8323090  10.8955340  67.6354790   6.9295820
  11.4100010  67.5462800   7.7318250  10.0524420  67.9814490   7.2223730
  16.8862610  55.9859250   9.3250750  16.2706880  56.4938920   8.7966210
  16.5659030  55.0857580   9.2676690   8.9476930  54.8251140   6.7912940
   8.4856300  55.0334160   7.6032880   8.5455040  54.0110490   6.4883610
  13.9481440  56.0460090   7.9209600  13.0975030  55.7465840   8.2418670
  13.7883230  56.2902100   7.0093420  11.0431150  57.5461840  10.0208390
  11.3684560  56.7125590   9.6810620  11.8311480  58.0690360  10.1686720
   6.6983020  52.5029950   3.0467220   6.9955350  53.4092780   2.9659240
   7.2468580  52.0148730   2.4326790   6.8920550  57.9801770   9.5819140
   6.7964150  57.0396500   9.4319540   7.7352530  58.2016840   9.1867210
   8.5976140  54.4750410  10.8049660   7.9074460  54.2822610  11.4395750
   9.3408440  54.7585050  11.3373960  10.8739110  58.3148850   3.6403580
  10.1420230  58.8235660   3.9893680  10.4763450  57.4978830   3.3392360
  11.3365020  53.7682530   3.0526520  11.3537760  54.2191180   3.8968370
  11.0880600  52.8688170   3.2659960  14.7635770  51.1814710   8.8912900
  15.0881540  50.4504370   9.4170880  14.7992280  50.8628350   7.9893890
   7.6124470  59.0504830   3.7921480   7.9794600  58.5763400   4.5382820
   7.4229530  59.9246400   4.1329820   5.4023840  58.0913470   6.1105690
   5.0980910  58.9705450   6.3356050   6.3570300  58.1513260   6.1463130
  14.6893610  61.2939820   2.4998930  15.4092730  61.7895110   2.1095040
  14.4875430  60.6157710   1.8552800  10.0712410  61.3648880   8.3867930
  10.0049720  60.4444550   8.1325520   9.4417550  61.4624320   9.1012570
   4.6600690  59.3900450  10.1416600   4.3600830  59.5357630   9.2444420
   5.4311930  58.8305740  10.0489990  10.0029140  64.1869450   8.1371730
  10.0173680  63.2550410   7.9190640   9.2954240  64.2729210   8.7761500
  16.2140350  60.8276790   7.4840310  15.4888540  61.4205570   7.2869700
  16.7415810  60.8200330   6.6853680   9.4363040  65.8287020   5.2312230
  10.0805260  66.0346400   5.9085650   9.7992480  65.0675420   4.7783080
  10.7095120  63.8319370   3.9489680  11.3517350  63.1312530   4.0621850
  11.2344470  64.6117810   3.7686570  12.4832740  64.6314270   7.1525740
  12.8188980  65.2180960   7.8303660  11.5633080  64.5006980   7.3823530
   8.3121320  64.6805600  10.3213800   7.9918190  63.9614840  10.8659490
   7.6379680  65.3560670  10.3949860  11.5274920  54.9131760   5.6850600
  11.8955740  54.0926970   6.0130170  10.6673120  54.9733650   6.1006250
   8.4876910  57.5671350   5.9088570   8.9862160  58.0417170   6.5740420
   8.6299860  56.6434870   6.1158600  15.6943770  53.7839310   6.7516960
  15.1917370  54.5244710   7.0910770  16.5100430  54.1723310   6.4353750
  15.9891360  66.1981340   1.8732580  16.1138780  67.0212510   2.3456390
  16.8556920  65.9872070   1.5256730   2.4667170  67.4758620  10.7335290
   3.2679900  67.7970670  11.1470690   1.9518990  67.1154200  11.4555200
  11.3031800  63.5838490  10.6810700  10.6969960  63.6070090   9.9406450
  10.9985910  62.8521530  11.2177950  12.7332170  67.3118780   9.2920110
  13.6853920  67.2276800   9.2420350  12.5860390  67.9760490   9.9653900
   7.2402920  61.3703070   9.2106860   6.4748590  61.9388070   9.1261530
   7.4218880  61.0779280   8.3175090  14.3826270  63.1008400   9.7681880
  15.1235740  63.4384160   9.2649340  13.6198950  63.2700460   9.2151650
   2.2188060  58.1061670  10.5721410   2.2593400  57.8075540  11.4806640
   3.0733560  58.5069280  10.4128930   4.1593870  56.6853770   8.5395900
   3.6290330  56.1944720   7.9119240   4.8281940  57.1137970   8.0053830
  13.0571930  61.1523230   8.3037090  13.4712950  61.3068310   9.1527510
  12.1222930  61.2778450   8.4662870  13.5294100  58.4919390  10.3076240
  14.1114870  57.7371710  10.2196720  13.7055870  59.0226830   9.5307720
   4.6466170  53.6516140   8.6193190   4.5523040  53.0336890   7.8944060
   4.0663560  54.3782430   8.3923100   7.4127610  52.2089380   5.6520580
   6.9644910  52.2313640   4.8066130   6.7792810  51.8108400   6.2490880
   7.8187160  61.1043710   6.2733020   8.2375270  61.9476440   6.1009260
   6.8995790  61.2415750   6.0439800  10.1551060  58.8359890   7.6570860
  10.2747270  58.2401030   8.3965700  11.0145060  58.8729580   7.2372160
  12.4938960  59.3897080   6.2333370  11.9674180  59.9139700   5.6298510
  12.8370300  60.0224470   6.8643100   5.6694580  67.4096720   7.3890750
   5.1315670  68.1342780   7.0699450   5.9228540  66.9327060   6.5988090
   6.9219830  55.3781240   8.9146680   7.5119520  55.0697090   9.6024500
   6.1040070  54.9060990   9.0706580  11.7413260  54.9947050   9.1479700
  11.0528780  54.3328590   9.0829690  12.4619280  54.5485320   9.5928160
   8.5256790  68.6447930   7.6477400   8.4515490  69.5483070   7.9549770
   7.6235630  68.3259830   7.6199470  16.0536470  66.3410110   7.9769960
  15.4538460  66.4002670   7.2333880  16.1830370  65.4015090   8.1066810
  14.7388110  63.0662090   6.0746120  13.9247950  63.4959250   6.3371910
  15.1462310  63.6780500   5.4615170  16.0878510  58.2050290   7.6015340
  15.8564600  57.9763040   6.7013290  16.3483060  59.1249840   7.5560230
  14.5266580  53.4306720  10.3795040  15.4036760  53.4390120  10.7629040
  14.5387420  52.6937560   9.7687390  16.1519570  57.3676130   4.7902610
  15.2022280  57.3339670   4.9047600  16.3332580  58.2776240   4.5552380
  15.2382700  51.1164690   6.1996150  15.8754920  51.7298830   6.5655340
  15.3857590  51.1525350   5.2545380   2.7026730  64.2498600   9.7505020
   2.6596360  63.8791510  10.6319480   2.8337740  65.1876170   9.8906840
   6.4032760  65.8058190   5.3514740   6.1624120  66.0732750   4.4645260
   7.3435400  65.9763920   5.4065600   8.6087180  52.2690880   9.1071250
   8.5476070  52.8612710   9.8566660   9.5487560  52.1616840   8.9621510
  11.2461740  51.9260940   8.7463540  11.8602150  52.2440230   8.0844620
  11.7911300  51.4409530   9.3659400  17.6636920  67.8252570   6.1525380
  17.1695200  68.2221440   5.4352510  17.0550210  67.2001780   6.5462660
   1.7683000  50.6055200   8.8602600   2.3165990  50.4243250   8.0968710
   1.8338310  49.8149310   9.3958910   2.5414760  67.1960850   6.8702800
   1.9475080  67.0645550   7.6092840   2.5338600  66.3598990   6.4044900
  11.9869780  50.4893080   5.0732830  11.1129620  50.8228190   4.8705760
  11.8780530  50.0166260   5.8984700  12.8941760  52.6963950   6.4574550
  12.5655120  51.8815710   6.0776280  13.8424060  52.6533760   6.3340240
  15.3476370  68.4675990   3.4312120  14.8879340  69.2191800   3.0570140
  14.7188830  67.7482460   3.3726920   5.7772090  66.7764230   2.6060250
   6.2937110  66.1651590   2.0808510   6.4269470  67.2793010   3.0971260
   8.5167590  67.6672720   3.4329230   8.8045400  67.4127020   2.5562240
   9.0290810  67.1150080   4.0234800   9.7344600  51.4062920   4.0125740
   8.9516390  51.8808420   4.2922500   9.4407530  50.5017750   3.9038920
   8.5839950  68.5888820  10.7997430   9.5107260  68.3533090  10.8433390
   8.5690380  69.4160820  10.3183460   5.7703560  51.2533570  10.5639310
   5.4887830  51.7567170   9.8000130   6.1523260  50.4555320  10.1981440
  12.3719020  50.6687150  11.1419780  12.2584470  50.9881760  12.0371300
  13.1888760  51.0699660  10.8457060  15.1517510  67.8158680  10.6238470
  15.9442830  67.3207910  10.4164430  15.4450660  68.4948820  11.2314080
  11.2777170  39.9136130  56.6028480  11.1971220  38.9990740  56.3320190
  10.8641590  40.4103200  55.8968190  13.4302640  46.0975340  57.2636880
  12.9684170  45.3262580  57.5924050  14.2428190  46.1241410  57.7689330
   9.6565950  48.3833350  56.8840870   9.0377390  48.8390850  56.3135310
  10.5117730  48.5384810  56.4830570   4.0114380  35.5468350  54.1794280
   4.1181130  36.4472080  54.4863040   3.1006740  35.4986320  53.8888930
  13.6633490  34.6693160  55.6505180  14.4843110  34.1789730  55.6930660
  13.6967570  35.2590820  56.4037020  10.5229300  43.2672590  54.2772780
   9.9046570  43.7322040  53.7135500  11.0352550  43.9600070  54.6942290
   7.5001430  32.3545510  57.1097920   7.8076410  31.7992400  56.3933420
   6.5702130  32.4889970  56.9270910  14.3461910  44.7929020  54.4895550
  14.2358240  43.8503350  54.6144970  14.3430160  45.1544660  55.3758310
   9.8882190  40.4194340  53.8458040   8.9611470  40.3531720  54.0746510
  10.0407010  41.3574470  53.7313280   9.8751270  36.6911340  50.8425200
   8.9354940  36.8525300  50.9277660  10.1934530  37.4097020  50.2961190
  13.9179480  41.9814640  54.3493290  13.2991900  41.6434190  53.7019590
  13.9003930  41.3374400  55.0572480   5.4938830  40.9459080  56.6277770
   5.0895830  40.2336330  56.1323670   5.5801950  40.6012320  57.5165810
  12.0944180  41.2201450  51.3566040  12.5337460  40.3823880  51.2103860
  12.8072600  41.8530850  51.4430180  10.2039560  46.1597520  55.3247280
  10.6435470  46.9021850  54.9102670  10.1426450  46.4024090  56.2486240
  15.6761320  32.4744260  49.6707080  15.3633980  32.5671090  50.5706150
  16.4373790  33.0525290  49.6204510   2.1943460  39.8404060  54.1284420
   2.0741060  40.5666150  53.5165690   1.8844350  39.0706970  53.6512330
  12.8709740  49.1466640  52.6810290  12.7110880  48.8569580  53.5792120
  12.7056450  48.3706770  52.1455520   5.3498120  48.9265170  54.4581910
   5.1740600  48.0100710  54.2449710   4.4953860  49.2852460  54.6979710
  12.5735870  46.6554200  51.2408290  11.8801030  46.6531490  50.5810570
  13.3158730  46.2313520  50.8102460  12.1385800  48.2816910  55.3156780
  12.5942750  47.5006290  55.6295400  12.4778320  48.9923730  55.8597960
   4.6607120  33.1839130  57.5108090   4.2175270  33.9648670  57.1792610
   5.2192110  33.5069020  58.2179030   7.7765940  32.8049830  52.3913920
   7.1520120  32.8009700  53.1167230   7.6896060  31.9380790  51.9949890
   4.4521340  38.3072700  55.2389340   4.2262260  38.0909870  56.1435960
   3.6713870  38.7401160  54.8935310  11.6819100  38.3136070  53.8379990
  11.0827990  39.0371870  53.6543610  12.2298710  38.2512850  53.0556440
  10.2883970  36.9499610  55.8683270  10.6813540  37.2671810  55.0551960
  10.6500820  36.0711490  55.9827790   7.3116500  36.2159560  58.3686540
   7.3152560  35.7749510  57.5191080   8.2067620  36.5376890  58.4758360
   3.1618880  36.0986050  57.3280750   2.8218930  36.5761280  58.0847800
   2.3996200  35.6451170  56.9681850   7.3736650  37.2171640  51.3593300
   7.4949470  37.1758120  52.3079120   6.9885160  38.0795790  51.2040030
   6.3858150  39.5272780  50.7576600   5.8175050  39.0791030  50.1312510
   7.0947150  39.8865560  50.2241750   3.9305630  43.5230970  53.0303010
   3.1567890  42.9828590  52.8701730   4.6600260  43.0037580  52.6920770
  10.1503550  33.9134290  52.9658790   9.3368160  33.4147460  52.8904100
   9.9565500  34.7532540  52.5495140  12.8651940  38.2853940  51.2620950
  13.7531560  38.5971170  51.0872290  12.8357030  37.4126190  50.8701530
   3.9743030  43.1911350  56.6681820   4.4921700  42.3879610  56.6138710
   3.5227050  43.1290490  57.5098650   8.8612530  44.4577630  51.9409120
   9.2028230  45.2019860  51.4452440   8.0325240  44.7708750  52.3033950
  15.1366210  39.5965780  50.7300810  15.0529930  40.0280000  49.8797250
  15.8560400  40.0564130  51.1627630  16.1653460  46.4508040  53.4582940
  15.5229620  45.7963660  53.7326660  15.7784120  46.8563130  52.6823610
  11.7439940  43.7793470  57.3054630  12.0963760  43.1821600  56.6456000
  10.8602270  43.4537700  57.4762880   7.8303220  44.5391160  54.7125040
   8.5174350  45.0860370  55.0932630   7.0435640  45.0831890  54.7474650
   7.1330430  41.5437190  54.3250400   7.5893210  42.3542440  54.5510590
   6.7818640  41.2260330  55.1568890   3.0342210  31.8874840  54.7972920
   2.9056840  31.8792740  55.7457840   2.2104230  32.2257930  54.4463930
  14.5550840  45.3424500  49.9959290  14.3288420  44.6254940  50.5883930
  14.1647040  45.0936940  49.1581040  14.1367090  43.2596440  51.6573450
  13.8488790  43.7209130  52.4451330  14.9319260  42.7994210  51.9257670
   6.3535490  46.7522560  51.5877420   6.3445590  47.4852250  50.9721930
   5.4333850  46.5054140  51.6804380  14.8936950  35.0945210  52.8168630
  14.2650110  35.1990880  52.1026860  14.3988870  35.3141990  53.6062510
   9.3395090  46.8150800  50.2502610   9.4407070  46.6114790  49.3204590
   8.4396830  46.5609080  50.4550390   6.8620980  37.3731160  54.2326510
   6.1537130  37.8417500  54.6740120   7.1465460  36.7153170  54.8671700
  10.8936410  34.0981820  55.6722300  10.7704190  34.1167950  54.7231810
  11.8420970  34.1460760  55.7920700   7.9813200  49.3337120  54.9450280
   8.2354700  49.2958510  54.0229650   7.0325680  49.2070450  54.9378530
   5.0656000  35.6816240  51.6077220   5.9146530  36.1186390  51.5417410
   4.6987270  35.9936500  52.4349280  13.9865780  40.2529000  56.5208790
  13.0455920  40.2679230  56.6956480  14.3009850  39.4664960  56.9669090
   3.9647420  41.9348600  50.0812750   4.7310690  41.8229960  50.6438180
   4.0422110  41.2386570  49.4289520   2.6594180  39.3673670  50.7645640
   2.7397770  38.4201180  50.8763040   3.5513930  39.6980550  50.8706300
   3.4608890  49.5169060  57.8680180   4.1971370  48.9684520  58.1388750
   3.8449810  50.3825070  57.7286170   6.5711200  48.6899370  49.6905750
   7.3639810  48.9788200  49.2387540   6.0515550  48.2591540  49.0118230
  15.6241370  47.9169500  51.1142490  15.3382880  47.5034640  50.2996670
  15.4260920  48.8457210  50.9943010   7.0888600  43.9102780  49.5548100
   6.9839240  43.2955130  50.2809480   6.9212820  43.3868670  48.7711110
  10.3291330  42.9722810  50.1590090   9.7801430  43.4192110  50.8032830
  10.9510590  42.4672060  50.6827760   5.9966450  41.9313730  52.0555390
   6.4182870  41.7653600  52.8986780   6.1217290  41.1213960  51.5610530
   8.5094090  40.9551340  49.3032490   9.0299750  40.2400360  48.9373640
   9.1562490  41.5937210  49.6033000   4.8925350  38.0046960  49.0013550
   4.6914410  37.1414320  49.3626890   4.7217400  37.9180320  48.0635150
  12.3713660  32.8155190  51.5300430  12.6515950  31.9723090  51.8859850
  11.5979390  33.0478300  52.0439180   3.6908150  35.1047580  48.9891430
   3.9934050  35.1115010  48.0810580   4.4302740  34.7545440  49.4859090
   6.9093080  34.0482200  49.9747630   6.5615080  33.3706190  49.3950080
   7.1105850  33.5871710  50.7891020   9.0742120  49.0362950  51.5934230
   9.9692910  49.3747920  51.6152990   9.1059750  48.3142360  50.9658510
   2.7138280  44.4090000  49.8221230   3.1513150  44.9519670  50.4778810
   3.1986010  43.5836950  49.8317570   4.5246000  45.5288040  54.9343460
   4.2241540  45.4053010  55.8347370   4.4183490  44.6696630  54.5259190
  17.2937920  45.3084440  49.6370140  16.4630880  45.3761090  50.1077370
  17.4709750  46.1988560  49.3337000  16.7494380  42.0531920  52.1404340
  17.5113290  42.6228570  52.2464030  16.7648750  41.4859120  52.9112650
  17.7554350  42.9082020  56.9846270  18.1263180  42.1249340  56.5782240
  18.3956280  43.5971120  56.8063570  16.8013550  42.3466290  49.2976860
  17.0762390  43.2545170  49.1696080  16.6124290  42.2828820  50.2338850
  13.1989160  35.3711140  50.5930490  13.6174040  35.1842120  49.7527150
  12.8925220  34.5190190  50.9033420  16.6978890  40.2835280  54.2906290
  16.3222490  39.5163210  53.8587580  15.9682010  40.6657980  54.7781220
  15.9729850  38.5092770  57.5913530  16.4967330  38.0155420  56.9603700
  16.5589270  38.6443130  58.3361100  15.4629820  37.7666120  53.5305940
  15.9588940  37.5336990  54.3154820  15.2645890  36.9277960  53.1143580
  16.8916980  36.4027070  56.0643620  16.7816260  36.2483110  57.0025890
  17.6524570  35.8748010  55.8219030  17.7807250  34.2334990  49.3049760
  18.7056560  34.1016170  49.0968050  17.7583040  34.3127810  50.2586210
  17.8545740  35.0045650  51.9306470  17.0597240  34.9390770  52.4599380
  18.0589020  35.9396290  51.9191820  14.7964160  49.0437200  55.9244860
  15.3923230  48.7221770  55.2479280  15.0542310  48.5709020  56.7158130
  14.2865670  33.3342530  58.3805300  14.7273760  33.2787630  57.5326900
  14.0173260  34.2500540  58.4515480  16.1504240  32.9657770  56.3914120
  16.0892640  32.0218990  56.2445140  16.9296270  33.0737860  56.9367580
   7.6198820  35.0506180  55.8472240   6.8073330  34.6763070  55.5068120
   8.1240460  34.2951260  56.1493430  12.1223800  31.7148630  57.0855310
  12.7253170  32.2868840  57.5603830  11.3816790  32.2788070  56.8629210
  15.2658400  32.1170190  52.3595590  15.4609030  33.0153640  52.6263020
  14.4788270  31.8857270  52.8528540   3.4510160  33.4630960  51.3971900
   3.9802920  32.6760760  51.2679850   4.0838480  34.1422150  51.6307430
   5.6448000  33.2006100  54.4517290   5.0150740  32.4993410  54.6187420
   5.1053140  33.9610230  54.2350450  16.8185010  49.3570900  54.1202150
  16.9937200  48.6708640  53.4763070  16.1206580  49.8817950  53.7278820
   4.6612660  49.7465740  51.6737460   5.3931480  49.4625020  51.1261350
   4.9206330  49.5079020  52.5636840   3.8227450  45.8630470  51.6783790
   3.1936330  46.3315570  52.2269620   3.9375280  45.0179690  52.1129980
  11.2777170  39.9136130  37.8284990  11.1971220  38.9990740  37.5576700
  10.8641590  40.4103200  37.1224700   9.4095210  41.6915150  39.7094260
   8.6337310  41.2115590  39.9992830  10.0608140  41.0120800  39.5350420
   3.4261040  42.0034960  40.5870020   2.5945920  41.7483670  40.9866530
   4.0342020  42.0745730  41.3227940  13.4302640  46.0975340  38.4893390
  12.9684170  45.3262580  38.8180560  14.2428190  46.1241410  38.9945840
   3.4062300  46.0375050  40.7828040   3.7090340  45.1472790  40.6038260
   4.1505890  46.5945270  40.5550290   9.6565950  48.3833350  38.1097380
   9.0377390  48.8390850  37.5391820  10.5117730  48.5384810  37.7087080
   8.8504200  44.3672340  39.7164420   8.7812480  43.4262280  39.5553550
   9.6124060  44.4573750  40.2886990   9.8809370  37.1742720  39.9433350
  10.2574190  36.3014600  39.8307020   9.7828880  37.5101420  39.0523790
   4.0114380  35.5468350  35.4050790   4.1181130  36.4472080  35.7119550
   3.1006740  35.4986320  35.1145440  13.6633490  34.6693160  36.8761690
  14.4843110  34.1789730  36.9187170  13.6967570  35.2590820  37.6293530
   5.8522110  38.5154720  39.7375970   6.3600330  39.0135690  40.3780990
   6.3835350  37.7389920  39.5615330  17.9533040  36.6859910  43.4405320
  17.2485210  37.0741620  42.9220430  18.2190960  37.3810200  44.0426250
   4.1358210  33.1553280  44.0039390   4.1376650  33.6725670  43.1985290
   3.3062520  32.6783460  43.9809320  10.5229300  43.2672590  35.5029290
   9.9046570  43.7322040  34.9392010  11.0352550  43.9600070  35.9198800
   5.3861060  42.7948460  42.1812890   5.0530440  43.4217380  42.8233960
   5.5627740  43.3210340  41.4014560  13.8994970  36.6093540  39.6489230
  13.1950540  36.8978430  40.2292340  14.2607130  37.4193650  39.2888790
   3.8173540  34.8663240  42.0109840   4.1590350  35.7105290  41.7163710
   2.8789350  35.0146980  42.1275180   4.5980160  44.7629260  43.9962070
   5.2154160  45.4380340  43.7146520   3.7373280  45.1717240  43.9049570
  15.5157750  46.2268670  41.9116710  14.8321270  46.8967780  41.9033380
  16.0552040  46.4249320  41.1461570  16.9681890  36.0548330  40.0398440
  16.0206800  36.0887310  40.1713870  17.2931880  36.8687280  40.4247800
   7.5001430  32.3545510  38.3354430   7.8076410  31.7992400  37.6189930
   6.5702130  32.4889970  38.1527420  13.0516490  48.0712800  40.6261890
  13.0643650  47.6675090  39.7584150  12.4991710  48.8460090  40.5223320
  14.3461910  44.7929020  35.7152060  14.2358240  43.8503350  35.8401480
  14.3430160  45.1544660  36.6014820  12.4501930  42.9742640  41.9544500
  12.8670720  42.7602750  41.1197960  13.1741750  43.2315430  42.5253120
   9.8882190  40.4194340  35.0714550   8.9611470  40.3531720  35.3003020
  10.0407010  41.3574470  34.9569790   9.8751270  36.6911340  32.0681710
   8.9354940  36.8525300  32.1534170  10.1934530  37.4097020  31.5217700
  16.3964030  41.3729860  42.0460740  15.5682660  41.4422950  41.5710870
  16.9914510  41.9584170  41.5776570  13.9179480  41.9814640  35.5749800
  13.2991900  41.6434190  34.9276100  13.9003930  41.3374400  36.2828990
  13.3606040  38.1599180  42.9915610  12.9477220  38.9852890  43.2455600
  12.6281990  37.5744220  42.7991970   5.4938830  40.9459080  37.8534280
   5.0895830  40.2336330  37.3580180   5.5801950  40.6012320  38.7422320
   5.9620530  44.6326640  40.0173490   5.6648820  44.0272110  39.3381270
   6.9120350  44.6703950  39.9062850   4.2067450  37.7202290  41.6333320
   4.7582040  37.8297630  40.8586570   4.7210960  38.0939890  42.3488550
  14.0506140  48.2058510  43.6796590  13.5736700  49.0130700  43.4869200
  13.3667930  47.5536840  43.8322800   5.0538960  44.3708330  46.6681290
   4.1567490  44.5948300  46.9154690   5.0791830  44.4943270  45.7192690
  12.0944180  41.2201450  32.5822550  12.5337460  40.3823880  32.4360370
  12.8072600  41.8530850  32.6686690   3.8810180  41.2421650  45.2438660
   3.7417950  42.1144450  45.6126060   2.9991540  40.8994460  45.0986600
  10.2039560  46.1597520  36.5503790  10.6435470  46.9021850  36.1359180
  10.1426450  46.4024090  37.4742750   5.6790530  47.1843350  47.4523810
   5.6505960  47.5886300  46.5852240   5.5155500  46.2553710  47.2895410
  15.6761320  32.4744260  30.8963590  15.3633980  32.5671090  31.7962660
  16.4373790  33.0525290  30.8461020   2.1943460  39.8404060  35.3540930
   2.0741060  40.5666150  34.7422200   1.8844350  39.0706970  34.8768840
  17.6305350  47.9670450  48.7487980  18.1065070  48.4453340  49.4277060
  18.2512510  47.8987940  48.0233480  17.0338600  45.1583300  45.9087990
  17.1601660  44.9195180  44.9905170  17.0759980  44.3267840  46.3810070
  10.8955340  48.8611300  44.4782800  11.4100010  48.7719310  45.2805230
  10.0524420  49.2071000  44.7710710  12.8709740  49.1466640  33.9066800
  12.7110880  48.8569580  34.8048630  12.7056450  48.3706770  33.3712030
   5.3498120  48.9265170  35.6838420   5.1740600  48.0100710  35.4706220
   4.4953860  49.2852460  35.9236220  12.5735870  46.6554200  32.4664800
  11.8801030  46.6531490  31.8067080  13.3158730  46.2313520  32.0358970
  12.1385800  48.2816910  36.5413290  12.5942750  47.5006290  36.8551910
  12.4778320  48.9923730  37.0854470  16.8862610  37.2115760  46.8737730
  16.2706880  37.7195430  46.3453190  16.5659030  36.3114090  46.8163670
   4.6607120  33.1839130  38.7364600   4.2175270  33.9648670  38.4049120
   5.2192110  33.5069020  39.4435540   8.9476930  36.0507650  44.3399920
   8.4856300  36.2590670  45.1519860   8.5455040  35.2367000  44.0370590
  13.9481440  37.2716600  45.4696580  13.0975030  36.9722350  45.7905650
  13.7883230  37.5158610  44.5580400  11.0431150  38.7718350  47.5695370
  11.3684560  37.9382100  47.2297600  11.8311480  39.2946870  47.7173700
   7.7765940  32.8049830  33.6170430   7.1520120  32.8009700  34.3423740
   7.6896060  31.9380790  33.2206400   6.6983020  33.7286460  40.5954200
   6.9955350  34.6349290  40.5146220   7.2468580  33.2405240  39.9813770
   4.4521340  38.3072700  36.4645850   4.2262260  38.0909870  37.3692470
   3.6713870  38.7401160  36.1191820  11.6819100  38.3136070  35.0636500
  11.0827990  39.0371870  34.8800120  12.2298710  38.2512850  34.2812950
   6.8920550  39.2058280  47.1306120   6.7964150  38.2653010  46.9806520
   7.7352530  39.4273350  46.7354190  10.2883970  36.9499610  37.0939780
  10.6813540  37.2671810  36.2808470  10.6500820  36.0711490  37.2084300
   8.5976140  35.7006920  48.3536640   7.9074460  35.5079120  48.9882730
   9.3408440  35.9841560  48.8860940  10.8739110  39.5405360  41.1890560
  10.1420230  40.0492170  41.5380660  10.4763450  38.7235340  40.8879340
   7.3116500  36.2159560  39.5943050   7.3152560  35.7749510  38.7447590
   8.2067620  36.5376890  39.7014870   3.1618880  36.0986050  38.5537260
   2.8218930  36.5761280  39.3104310   2.3996200  35.6451170  38.1938360
   7.3736650  37.2171640  32.5849810   7.4949470  37.1758120  33.5335630
   6.9885160  38.0795790  32.4296540  11.3365020  34.9939040  40.6013500
  11.3537760  35.4447690  41.4455350  11.0880600  34.0944680  40.8146940
   6.3858150  39.5272780  31.9833110   5.8175050  39.0791030  31.3569020
   7.0947150  39.8865560  31.4498260  14.7635770  32.4071220  46.4399880
  15.0881540  31.6760880  46.9657860  14.7992280  32.0884860  45.5380870
   7.6124470  40.2761340  41.3408460   7.9794600  39.8019910  42.0869800
   7.4229530  41.1502910  41.6816800   5.4023840  39.3169980  43.6592670
   5.0980910  40.1961960  43.8843030   6.3570300  39.3769770  43.6950110
   3.9305630  43.5230970  34.2559520   3.1567890  42.9828590  34.0958240
   4.6600260  43.0037580  33.9177280  14.6893610  42.5196330  40.0485910
  15.4092730  43.0151620  39.6582020  14.4875430  41.8414220  39.4039780
  10.1503550  33.9134290  34.1915300   9.3368160  33.4147460  34.1160610
   9.9565500  34.7532540  33.7751650  10.0712410  42.5905390  45.9354910
  10.0049720  41.6701060  45.6812500   9.4417550  42.6880830  46.6499550
  12.8651940  38.2853940  32.4877460  13.7531560  38.5971170  32.3128800
  12.8357030  37.4126190  32.0958040   3.9743030  43.1911350  37.8938330
   4.4921700  42.3879610  37.8395220   3.5227050  43.1290490  38.7355160
   8.8612530  44.4577630  33.1665630   9.2028230  45.2019860  32.6708950
   8.0325240  44.7708750  33.5290460   4.6600690  40.6156960  47.6903580
   4.3600830  40.7614140  46.7931400   5.4311930  40.0562250  47.5976970
  10.0029140  45.4125960  45.6858710  10.0173680  44.4806920  45.4677620
   9.2954240  45.4985720  46.3248480  15.1366210  39.5965780  31.9557320
  15.0529930  40.0280000  31.1053760  15.8560400  40.0564130  32.3884140
  16.2140350  42.0533300  45.0327290  15.4888540  42.6462080  44.8356680
  16.7415810  42.0456840  44.2340660  16.1653460  46.4508040  34.6839450
  15.5229620  45.7963660  34.9583170  15.7784120  46.8563130  33.9080120
  11.7439940  43.7793470  38.5311140  12.0963760  43.1821600  37.8712510
  10.8602270  43.4537700  38.7019390   7.8303220  44.5391160  35.9381550
   8.5174350  45.0860370  36.3189140   7.0435640  45.0831890  35.9731160
   7.1330430  41.5437190  35.5506910   7.5893210  42.3542440  35.7767100
   6.7818640  41.2260330  36.3825400   9.4363040  47.0543530  42.7799210
  10.0805260  47.2602910  43.4572630   9.7992480  46.2931930  42.3270060
   3.0342210  31.8874840  36.0229430   2.9056840  31.8792740  36.9714350
   2.2104230  32.2257930  35.6720440  10.7095120  45.0575880  41.4976660
  11.3517350  44.3569040  41.6108830  11.2344470  45.8374320  41.3173550
  14.5550840  45.3424500  31.2215800  14.3288420  44.6254940  31.8140440
  14.1647040  45.0936940  30.3837550  12.4832740  45.8570780  44.7012720
  12.8188980  46.4437470  45.3790640  11.5633080  45.7263490  44.9310510
  14.1367090  43.2596440  32.8829960  13.8488790  43.7209130  33.6707840
  14.9319260  42.7994210  33.1514180   8.3121320  45.9062110  47.8700780
   7.9918190  45.1871350  48.4146470   7.6379680  46.5817180  47.9436840
   6.3535490  46.7522560  32.8133930   6.3445590  47.4852250  32.1978440
   5.4333850  46.5054140  32.9060890  11.5274920  36.1388270  43.2337580
  11.8955740  35.3183480  43.5617150  10.6673120  36.1990160  43.6493230
  14.8936950  35.0945210  34.0425140  14.2650110  35.1990880  33.3283370
  14.3988870  35.3141990  34.8319020   9.3395090  46.8150800  31.4759120
   9.4407070  46.6114790  30.5461100   8.4396830  46.5609080  31.6806900
   6.8620980  37.3731160  35.4583020   6.1537130  37.8417500  35.8996630
   7.1465460  36.7153170  36.0928210   8.4876910  38.7927860  43.4575550
   8.9862160  39.2673680  44.1227400   8.6299860  37.8691380  43.6645580
  10.8936410  34.0981820  36.8978810  10.7704190  34.1167950  35.9488320
  11.8420970  34.1460760  37.0177210   7.9813200  49.3337120  36.1706790
   8.2354700  49.2958510  35.2486160   7.0325680  49.2070450  36.1635040
   5.0656000  35.6816240  32.8333730   5.9146530  36.1186390  32.7673920
   4.6987270  35.9936500  33.6605790  15.6943770  35.0095820  44.3003940
  15.1917370  35.7501220  44.6397750  16.5100430  35.3979820  43.9840730
  13.9865780  40.2529000  37.7465300  13.0455920  40.2679230  37.9212990
  14.3009850  39.4664960  38.1925600   3.9647420  41.9348600  31.3069260
   4.7310690  41.8229960  31.8694690   4.0422110  41.2386570  30.6546030
   2.6594180  39.3673670  31.9902150   2.7397770  38.4201180  32.1019550
   3.5513930  39.6980550  32.0962810  15.9891360  47.4237850  39.4219560
  16.1138780  48.2469020  39.8943370  16.8556920  47.2128580  39.0743710
   3.4608890  49.5169060  39.0936690   4.1971370  48.9684520  39.3645260
   3.8449810  50.3825070  38.9542680   2.4667170  48.7015130  48.2822270
   3.2679900  49.0227180  48.6957670   1.9518990  48.3410710  49.0042180
   6.5711200  48.6899370  30.9162260   7.3639810  48.9788200  30.4644050
   6.0515550  48.2591540  30.2374740  11.3031800  44.8095000  48.2297680
  10.6969960  44.8326600  47.4893430  10.9985910  44.0778040  48.7664930
  12.7332170  48.5375290  46.8407090  13.6853920  48.4533310  46.7907330
  12.5860390  49.2017000  47.5140880  15.6241370  47.9169500  32.3399000
  15.3382880  47.5034640  31.5253180  15.4260920  48.8457210  32.2199520
   7.0888600  43.9102780  30.7804610   6.9839240  43.2955130  31.5065990
   6.9212820  43.3868670  29.9967620   7.2402920  42.5959580  46.7593840
   6.4748590  43.1644580  46.6748510   7.4218880  42.3035790  45.8662070
  10.3291330  42.9722810  31.3846600   9.7801430  43.4192110  32.0289340
  10.9510590  42.4672060  31.9084270  14.3826270  44.3264910  47.3168860
  15.1235740  44.6640670  46.8136320  13.6198950  44.4956970  46.7638630
   2.2188060  39.3318180  48.1208390   2.2593400  39.0332050  49.0293620
   3.0733560  39.7325790  47.9615910   5.9966450  41.9313730  33.2811900
   6.4182870  41.7653600  34.1243290   6.1217290  41.1213960  32.7867040
   4.1593870  37.9110280  46.0882880   3.6290330  37.4201230  45.4606220
   4.8281940  38.3394480  45.5540810   8.5094090  40.9551340  30.5289000
   9.0299750  40.2400360  30.1630150   9.1562490  41.5937210  30.8289510
  13.0571930  42.3779740  45.8524070  13.4712950  42.5324820  46.7014490
  12.1222930  42.5034960  46.0149850  13.5294100  39.7175900  47.8563220
  14.1114870  38.9628220  47.7683700  13.7055870  40.2483340  47.0794700
   4.6466170  34.8772650  46.1680170   4.5523040  34.2593400  45.4431040
   4.0663560  35.6038940  45.9410080   7.4127610  33.4345890  43.2007560
   6.9644910  33.4570150  42.3553110   6.7792810  33.0364910  43.7977860
   7.8187160  42.3300220  43.8220000   8.2375270  43.1732950  43.6496240
   6.8995790  42.4672260  43.5926780  10.1551060  40.0616400  45.2057840
  10.2747270  39.4657540  45.9452680  11.0145060  40.0986090  44.7859140
  12.4938960  40.6153590  43.7820350  11.9674180  41.1396210  43.1785490
  12.8370300  41.2480980  44.4130080   4.8925350  38.0046960  30.2270060
   4.6914410  37.1414320  30.5883400   4.7217400  37.9180320  29.2891660
   5.6694580  48.6353230  44.9377730   5.1315670  49.3599290  44.6186430
   5.9228540  48.1583570  44.1475070   6.9219830  36.6037750  46.4633660
   7.5119520  36.2953600  47.1511480   6.1040070  36.1317500  46.6193560
  11.7413260  36.2203560  46.6966680  11.0528780  35.5585100  46.6316670
  12.4619280  35.7741830  47.1415140  12.3713660  32.8155190  32.7556940
  12.6515950  31.9723090  33.1116360  11.5979390  33.0478300  33.2695690
   3.6908150  35.1047580  30.2147940   3.9934050  35.1115010  29.3067090
   4.4302740  34.7545440  30.7115600   8.5256790  49.8704440  45.1964380
   8.4515490  50.7739580  45.5036750   7.6235630  49.5516340  45.1686450
   6.9093080  34.0482200  31.2004140   6.5615080  33.3706190  30.6206590
   7.1105850  33.5871710  32.0147530   9.0742120  49.0362950  32.8190740
   9.9692910  49.3747920  32.8409500   9.1059750  48.3142360  32.1915020
   2.7138280  44.4090000  31.0477740   3.1513150  44.9519670  31.7035320
   3.1986010  43.5836950  31.0574080   4.5246000  45.5288040  36.1599970
   4.2241540  45.4053010  37.0603880   4.4183490  44.6696630  35.7515700
  16.0536470  47.5666620  45.5256940  15.4538460  47.6259180  44.7820860
  16.1830370  46.6271600  45.6553790  17.2937920  45.3084440  30.8626650
  16.4630880  45.3761090  31.3333880  17.4709750  46.1988560  30.5593510
  16.7494380  42.0531920  33.3660850  17.5113290  42.6228570  33.4720540
  16.7648750  41.4859120  34.1369160  17.7554350  42.9082020  38.2102780
  18.1263180  42.1249340  37.8038750  18.3956280  43.5971120  38.0320080
  14.7388110  44.2918600  43.6233100  13.9247950  44.7215760  43.8858890
  15.1462310  44.9037010  43.0102150  16.8013550  42.3466290  30.5233370
  17.0762390  43.2545170  30.3952590  16.6124290  42.2828820  31.4595360
  13.1989160  35.3711140  31.8187000  13.6174040  35.1842120  30.9783660
  12.8925220  34.5190190  32.1289930  16.6978890  40.2835280  35.5162800
  16.3222490  39.5163210  35.0844090  15.9682010  40.6657980  36.0037730
  16.0878510  39.4306800  45.1502320  15.8564600  39.2019550  44.2500270
  16.3483060  40.3506350  45.1047210  14.5266580  34.6563230  47.9282020
  15.4036760  34.6646630  48.3116020  14.5387420  33.9194070  47.3174370
  15.9729850  38.5092770  38.8170040  16.4967330  38.0155420  38.1860210
  16.5589270  38.6443130  39.5617610  16.1519570  38.5932640  42.3389590
  15.2022280  38.5596180  42.4534580  16.3332580  39.5032750  42.1039360
  15.4629820  37.7666120  34.7562450  15.9588940  37.5336990  35.5411330
  15.2645890  36.9277960  34.3400090  16.8916980  36.4027070  37.2900130
  16.7816260  36.2483110  38.2282400  17.6524570  35.8748010  37.0475540
  15.2382700  32.3421200  43.7483130  15.8754920  32.9555340  44.1142320
  15.3857590  32.3781860  42.8032360  17.7807250  34.2334990  30.5306270
  18.7056560  34.1016170  30.3224560  17.7583040  34.3127810  31.4842720
  17.8545740  35.0045650  33.1562980  17.0597240  34.9390770  33.6855890
  18.0589020  35.9396290  33.1448330  14.7964160  49.0437200  37.1501370
  15.3923230  48.7221770  36.4735790  15.0542310  48.5709020  37.9414640
   2.7026730  45.4755110  47.2992000   2.6596360  45.1048020  48.1806460
   2.8337740  46.4132680  47.4393820   6.4032760  47.0314700  42.9001720
   6.1624120  47.2989260  42.0132240   7.3435400  47.2020430  42.9552580
   8.6087180  33.4947390  46.6558230   8.5476070  34.0869220  47.4053640
   9.5487560  33.3873350  46.5108490  11.2461740  33.1517450  46.2950520
  11.8602150  33.4696740  45.6331600  11.7911300  32.6666040  46.9146380
  17.6636920  49.0509080  43.7012360  17.1695200  49.4477950  42.9839490
  17.0550210  48.4258290  44.0949640   1.7683000  31.8311710  46.4089580
   2.3165990  31.6499760  45.6455690   1.8338310  31.0405820  46.9445890
   2.5414760  48.4217360  44.4189780   1.9475080  48.2902060  45.1579820
   2.5338600  47.5855500  43.9531880  11.9869780  31.7149590  42.6219810
  11.1129620  32.0484700  42.4192740  11.8780530  31.2422770  43.4471680
  12.8941760  33.9220460  44.0061530  12.5655120  33.1072220  43.6263260
  13.8424060  33.8790270  43.8827220  15.3476370  49.6932500  40.9799100
  14.8879340  50.4448310  40.6057120  14.7188830  48.9738970  40.9213900
   5.7772090  48.0020740  40.1547230   6.2937110  47.3908100  39.6295490
   6.4269470  48.5049520  40.6458240   8.5167590  48.8929230  40.9816210
   8.8045400  48.6383530  40.1049220   9.0290810  48.3406590  41.5721780
   9.7344600  32.6319430  41.5612720   8.9516390  33.1064930  41.8409480
   9.4407530  31.7274260  41.4525900  14.2865670  33.3342530  39.6061810
  14.7273760  33.2787630  38.7583410  14.0173260  34.2500540  39.6771990
  16.1504240  32.9657770  37.6170630  16.0892640  32.0218990  37.4701650
  16.9296270  33.0737860  38.1624090   7.6198820  35.0506180  37.0728750
   6.8073330  34.6763070  36.7324630   8.1240460  34.2951260  37.3749940
  12.1223800  31.7148630  38.3111820  12.7253170  32.2868840  38.7860340
  11.3816790  32.2788070  38.0885720  15.2658400  32.1170190  33.5852100
  15.4609030  33.0153640  33.8519530  14.4788270  31.8857270  34.0785050
   3.4510160  33.4630960  32.6228410   3.9802920  32.6760760  32.4936360
   4.0838480  34.1422150  32.8563940   5.6448000  33.2006100  35.6773800
   5.0150740  32.4993410  35.8443930   5.1053140  33.9610230  35.4606960
   8.5839950  49.8145330  48.3484410   9.5107260  49.5789600  48.3920370
   8.5690380  50.6417330  47.8670440  16.8185010  49.3570900  35.3458660
  16.9937200  48.6708640  34.7019580  16.1206580  49.8817950  34.9535330
   5.7703560  32.4790080  48.1126290   5.4887830  32.9823680  47.3487110
   6.1523260  31.6811830  47.7468420   4.6612660  49.7465740  32.8993970
   5.3931480  49.4625020  32.3517860   4.9206330  49.5079020  33.7893350
   3.8227450  45.8630470  32.9040300   3.1936330  46.3315570  33.4526130
   3.9375280  45.0179690  33.3386490  12.3719020  31.8943660  48.6906760
  12.2584470  32.2138270  49.5858280  13.1888760  32.2956170  48.3944040
  15.1517510  49.0415190  48.1725450  15.9442830  48.5464420  47.9651410
  15.4450660  49.7205330  48.7801060  11.2777170  39.9136130  19.0541500
  11.1971220  38.9990740  18.7833210  10.8641590  40.4103200  18.3481210
   9.4095210  41.6915150  20.9350770   8.6337310  41.2115590  21.2249340
  10.0608140  41.0120800  20.7606930   3.4261040  42.0034960  21.8126530
   2.5945920  41.7483670  22.2123040   4.0342020  42.0745730  22.5484450
  13.4302640  46.0975340  19.7149900  12.9684170  45.3262580  20.0437070
  14.2428190  46.1241410  20.2202350   3.4062300  46.0375050  22.0084550
   3.7090340  45.1472790  21.8294770   4.1505890  46.5945270  21.7806800
   9.6565950  48.3833350  19.3353890   9.0377390  48.8390850  18.7648330
  10.5117730  48.5384810  18.9343590   8.8504200  44.3672340  20.9420930
   8.7812480  43.4262280  20.7810060   9.6124060  44.4573750  21.5143500
   9.8809370  37.1742720  21.1689860  10.2574190  36.3014600  21.0563530
   9.7828880  37.5101420  20.2780300   4.0114380  35.5468350  16.6307300
   4.1181130  36.4472080  16.9376060   3.1006740  35.4986320  16.3401950
  13.6633490  34.6693160  18.1018200  14.4843110  34.1789730  18.1443680
  13.6967570  35.2590820  18.8550040   5.8522110  38.5154720  20.9632480
   6.3600330  39.0135690  21.6037500   6.3835350  37.7389920  20.7871840
  17.9533040  36.6859910  24.6661830  17.2485210  37.0741620  24.1476940
  18.2190960  37.3810200  25.2682760   4.1358210  33.1553280  25.2295900
   4.1376650  33.6725670  24.4241800   3.3062520  32.6783460  25.2065830
  10.5229300  43.2672590  16.7285800   9.9046570  43.7322040  16.1648520
  11.0352550  43.9600070  17.1455310   5.3861060  42.7948460  23.4069400
   5.0530440  43.4217380  24.0490470   5.5627740  43.3210340  22.6271070
  13.8994970  36.6093540  20.8745740  13.1950540  36.8978430  21.4548850
  14.2607130  37.4193650  20.5145300   3.8173540  34.8663240  23.2366350
   4.1590350  35.7105290  22.9420220   2.8789350  35.0146980  23.3531690
   4.5980160  44.7629260  25.2218580   5.2154160  45.4380340  24.9403030
   3.7373280  45.1717240  25.1306080  15.5157750  46.2268670  23.1373220
  14.8321270  46.8967780  23.1289890  16.0552040  46.4249320  22.3718080
  16.9681890  36.0548330  21.2654950  16.0206800  36.0887310  21.3970380
  17.2931880  36.8687280  21.6504310   7.5001430  32.3545510  19.5610940
   7.8076410  31.7992400  18.8446440   6.5702130  32.4889970  19.3783930
  13.0516490  48.0712800  21.8518400  13.0643650  47.6675090  20.9840660
  12.4991710  48.8460090  21.7479830  14.3461910  44.7929020  16.9408570
  14.2358240  43.8503350  17.0657990  14.3430160  45.1544660  17.8271330
  12.4501930  42.9742640  23.1801010  12.8670720  42.7602750  22.3454470
  13.1741750  43.2315430  23.7509630   9.8882190  40.4194340  16.2971060
   8.9611470  40.3531720  16.5259530  10.0407010  41.3574470  16.1826300
   9.8751270  36.6911340  13.2938220   8.9354940  36.8525300  13.3790680
  10.1934530  37.4097020  12.7474210  16.3964030  41.3729860  23.2717250
  15.5682660  41.4422950  22.7967380  16.9914510  41.9584170  22.8033080
  13.9179480  41.9814640  16.8006310  13.2991900  41.6434190  16.1532610
  13.9003930  41.3374400  17.5085500  13.3606040  38.1599180  24.2172120
  12.9477220  38.9852890  24.4712110  12.6281990  37.5744220  24.0248480
   5.4938830  40.9459080  19.0790790   5.0895830  40.2336330  18.5836690
   5.5801950  40.6012320  19.9678830   5.9620530  44.6326640  21.2430000
   5.6648820  44.0272110  20.5637780   6.9120350  44.6703950  21.1319360
   4.2067450  37.7202290  22.8589830   4.7582040  37.8297630  22.0843080
   4.7210960  38.0939890  23.5745060  14.0506140  48.2058510  24.9053100
  13.5736700  49.0130700  24.7125710  13.3667930  47.5536840  25.0579310
   5.0538960  44.3708330  27.8937800   4.1567490  44.5948300  28.1411200
   5.0791830  44.4943270  26.9449200  12.0944180  41.2201450  13.8079060
  12.5337460  40.3823880  13.6616880  12.8072600  41.8530850  13.8943200
   3.8810180  41.2421650  26.4695170   3.7417950  42.1144450  26.8382570
   2.9991540  40.8994460  26.3243110  10.2039560  46.1597520  17.7760300
  10.6435470  46.9021850  17.3615690  10.1426450  46.4024090  18.6999260
   5.6790530  47.1843350  28.6780320   5.6505960  47.5886300  27.8108750
   5.5155500  46.2553710  28.5151920  15.6761320  32.4744260  12.1220100
  15.3633980  32.5671090  13.0219170  16.4373790  33.0525290  12.0717530
   2.1943460  39.8404060  16.5797440   2.0741060  40.5666150  15.9678710
   1.8844350  39.0706970  16.1025350  17.6305350  47.9670450  29.9744490
  18.1065070  48.4453340  30.6533570  18.2512510  47.8987940  29.2489990
  17.0338600  45.1583300  27.1344500  17.1601660  44.9195180  26.2161680
  17.0759980  44.3267840  27.6066580  10.8955340  48.8611300  25.7039310
  11.4100010  48.7719310  26.5061740  10.0524420  49.2071000  25.9967220
  12.8709740  49.1466640  15.1323310  12.7110880  48.8569580  16.0305140
  12.7056450  48.3706770  14.5968540   5.3498120  48.9265170  16.9094930
   5.1740600  48.0100710  16.6962730   4.4953860  49.2852460  17.1492730
  12.5735870  46.6554200  13.6921310  11.8801030  46.6531490  13.0323590
  13.3158730  46.2313520  13.2615480  12.1385800  48.2816910  17.7669800
  12.5942750  47.5006290  18.0808420  12.4778320  48.9923730  18.3110980
  16.8862610  37.2115760  28.0994240  16.2706880  37.7195430  27.5709700
  16.5659030  36.3114090  28.0420180   4.6607120  33.1839130  19.9621110
   4.2175270  33.9648670  19.6305630   5.2192110  33.5069020  20.6692050
   8.9476930  36.0507650  25.5656430   8.4856300  36.2590670  26.3776370
   8.5455040  35.2367000  25.2627100  13.9481440  37.2716600  26.6953090
  13.0975030  36.9722350  27.0162160  13.7883230  37.5158610  25.7836910
  11.0431150  38.7718350  28.7951880  11.3684560  37.9382100  28.4554110
  11.8311480  39.2946870  28.9430210   7.7765940  32.8049830  14.8426940
   7.1520120  32.8009700  15.5680250   7.6896060  31.9380790  14.4462910
   6.6983020  33.7286460  21.8210710   6.9955350  34.6349290  21.7402730
   7.2468580  33.2405240  21.2070280   4.4521340  38.3072700  17.6902360
   4.2262260  38.0909870  18.5948980   3.6713870  38.7401160  17.3448330
  11.6819100  38.3136070  16.2893010  11.0827990  39.0371870  16.1056630
  12.2298710  38.2512850  15.5069460   6.8920550  39.2058280  28.3562630
   6.7964150  38.2653010  28.2063030   7.7352530  39.4273350  27.9610700
  10.2883970  36.9499610  18.3196290  10.6813540  37.2671810  17.5064980
  10.6500820  36.0711490  18.4340810   8.5976140  35.7006920  29.5793150
   7.9074460  35.5079120  30.2139240   9.3408440  35.9841560  30.1117450
  10.8739110  39.5405360  22.4147070  10.1420230  40.0492170  22.7637170
  10.4763450  38.7235340  22.1135850   7.3116500  36.2159560  20.8199560
   7.3152560  35.7749510  19.9704100   8.2067620  36.5376890  20.9271380
   3.1618880  36.0986050  19.7793770   2.8218930  36.5761280  20.5360820
   2.3996200  35.6451170  19.4194870   7.3736650  37.2171640  13.8106320
   7.4949470  37.1758120  14.7592140   6.9885160  38.0795790  13.6553050
  11.3365020  34.9939040  21.8270010  11.3537760  35.4447690  22.6711860
  11.0880600  34.0944680  22.0403450   6.3858150  39.5272780  13.2089620
   5.8175050  39.0791030  12.5825530   7.0947150  39.8865560  12.6754770
  14.7635770  32.4071220  27.6656390  15.0881540  31.6760880  28.1914370
  14.7992280  32.0884860  26.7637380   7.6124470  40.2761340  22.5664970
   7.9794600  39.8019910  23.3126310   7.4229530  41.1502910  22.9073310
   5.4023840  39.3169980  24.8849180   5.0980910  40.1961960  25.1099540
   6.3570300  39.3769770  24.9206620   3.9305630  43.5230970  15.4816030
   3.1567890  42.9828590  15.3214750   4.6600260  43.0037580  15.1433790
  14.6893610  42.5196330  21.2742420  15.4092730  43.0151620  20.8838530
  14.4875430  41.8414220  20.6296290  10.1503550  33.9134290  15.4171810
   9.3368160  33.4147460  15.3417120   9.9565500  34.7532540  15.0008160
  10.0712410  42.5905390  27.1611420  10.0049720  41.6701060  26.9069010
   9.4417550  42.6880830  27.8756060  12.8651940  38.2853940  13.7133970
  13.7531560  38.5971170  13.5385310  12.8357030  37.4126190  13.3214550
   3.9743030  43.1911350  19.1194840   4.4921700  42.3879610  19.0651730
   3.5227050  43.1290490  19.9611670   8.8612530  44.4577630  14.3922140
   9.2028230  45.2019860  13.8965460   8.0325240  44.7708750  14.7546970
   4.6600690  40.6156960  28.9160090   4.3600830  40.7614140  28.0187910
   5.4311930  40.0562250  28.8233480  10.0029140  45.4125960  26.9115220
  10.0173680  44.4806920  26.6934130   9.2954240  45.4985720  27.5504990
  15.1366210  39.5965780  13.1813830  15.0529930  40.0280000  12.3310270
  15.8560400  40.0564130  13.6140650  16.2140350  42.0533300  26.2583800
  15.4888540  42.6462080  26.0613190  16.7415810  42.0456840  25.4597170
  16.1653460  46.4508040  15.9095960  15.5229620  45.7963660  16.1839680
  15.7784120  46.8563130  15.1336630  11.7439940  43.7793470  19.7567650
  12.0963760  43.1821600  19.0969020  10.8602270  43.4537700  19.9275900
   7.8303220  44.5391160  17.1638060   8.5174350  45.0860370  17.5445650
   7.0435640  45.0831890  17.1987670   7.1330430  41.5437190  16.7763420
   7.5893210  42.3542440  17.0023610   6.7818640  41.2260330  17.6081910
   9.4363040  47.0543530  24.0055720  10.0805260  47.2602910  24.6829140
   9.7992480  46.2931930  23.5526570   3.0342210  31.8874840  17.2485940
   2.9056840  31.8792740  18.1970860   2.2104230  32.2257930  16.8976950
  10.7095120  45.0575880  22.7233170  11.3517350  44.3569040  22.8365340
  11.2344470  45.8374320  22.5430060  14.5550840  45.3424500  12.4472310
  14.3288420  44.6254940  13.0396950  14.1647040  45.0936940  11.6094060
  12.4832740  45.8570780  25.9269230  12.8188980  46.4437470  26.6047150
  11.5633080  45.7263490  26.1567020  14.1367090  43.2596440  14.1086470
  13.8488790  43.7209130  14.8964350  14.9319260  42.7994210  14.3770690
   8.3121320  45.9062110  29.0957290   7.9918190  45.1871350  29.6402980
   7.6379680  46.5817180  29.1693350   6.3535490  46.7522560  14.0390440
   6.3445590  47.4852250  13.4234950   5.4333850  46.5054140  14.1317400
  11.5274920  36.1388270  24.4594090  11.8955740  35.3183480  24.7873660
  10.6673120  36.1990160  24.8749740  14.8936950  35.0945210  15.2681650
  14.2650110  35.1990880  14.5539880  14.3988870  35.3141990  16.0575530
   9.3395090  46.8150800  12.7015630   9.4407070  46.6114790  11.7717610
   8.4396830  46.5609080  12.9063410   6.8620980  37.3731160  16.6839530
   6.1537130  37.8417500  17.1253140   7.1465460  36.7153170  17.3184720
   8.4876910  38.7927860  24.6832060   8.9862160  39.2673680  25.3483910
   8.6299860  37.8691380  24.8902090  10.8936410  34.0981820  18.1235320
  10.7704190  34.1167950  17.1744830  11.8420970  34.1460760  18.2433720
   7.9813200  49.3337120  17.3963300   8.2354700  49.2958510  16.4742670
   7.0325680  49.2070450  17.3891550   5.0656000  35.6816240  14.0590240
   5.9146530  36.1186390  13.9930430   4.6987270  35.9936500  14.8862300
  15.6943770  35.0095820  25.5260450  15.1917370  35.7501220  25.8654260
  16.5100430  35.3979820  25.2097240  13.9865780  40.2529000  18.9721810
  13.0455920  40.2679230  19.1469500  14.3009850  39.4664960  19.4182110
   3.9647420  41.9348600  12.5325770   4.7310690  41.8229960  13.0951200
   4.0422110  41.2386570  11.8802540   2.6594180  39.3673670  13.2158660
   2.7397770  38.4201180  13.3276060   3.5513930  39.6980550  13.3219320
  15.9891360  47.4237850  20.6476070  16.1138780  48.2469020  21.1199880
  16.8556920  47.2128580  20.3000220   3.4608890  49.5169060  20.3193200
   4.1971370  48.9684520  20.5901770   3.8449810  50.3825070  20.1799190
   2.4667170  48.7015130  29.5078780   3.2679900  49.0227180  29.9214180
   1.9518990  48.3410710  30.2298690   6.5711200  48.6899370  12.1418770
   7.3639810  48.9788200  11.6900560   6.0515550  48.2591540  11.4631250
  11.3031800  44.8095000  29.4554190  10.6969960  44.8326600  28.7149940
  10.9985910  44.0778040  29.9921440  12.7332170  48.5375290  28.0663600
  13.6853920  48.4533310  28.0163840  12.5860390  49.2017000  28.7397390
  15.6241370  47.9169500  13.5655510  15.3382880  47.5034640  12.7509690
  15.4260920  48.8457210  13.4456030   7.0888600  43.9102780  12.0061120
   6.9839240  43.2955130  12.7322500   6.9212820  43.3868670  11.2224130
   7.2402920  42.5959580  27.9850350   6.4748590  43.1644580  27.9005020
   7.4218880  42.3035790  27.0918580  10.3291330  42.9722810  12.6103110
   9.7801430  43.4192110  13.2545850  10.9510590  42.4672060  13.1340780
  14.3826270  44.3264910  28.5425370  15.1235740  44.6640670  28.0392830
  13.6198950  44.4956970  27.9895140   2.2188060  39.3318180  29.3464900
   2.2593400  39.0332050  30.2550130   3.0733560  39.7325790  29.1872420
   5.9966450  41.9313730  14.5068410   6.4182870  41.7653600  15.3499800
   6.1217290  41.1213960  14.0123550   4.1593870  37.9110280  27.3139390
   3.6290330  37.4201230  26.6862730   4.8281940  38.3394480  26.7797320
   8.5094090  40.9551340  11.7545510   9.0299750  40.2400360  11.3886660
   9.1562490  41.5937210  12.0546020  13.0571930  42.3779740  27.0780580
  13.4712950  42.5324820  27.9271000  12.1222930  42.5034960  27.2406360
  13.5294100  39.7175900  29.0819730  14.1114870  38.9628220  28.9940210
  13.7055870  40.2483340  28.3051210   4.6466170  34.8772650  27.3936680
   4.5523040  34.2593400  26.6687550   4.0663560  35.6038940  27.1666590
   7.4127610  33.4345890  24.4264070   6.9644910  33.4570150  23.5809620
   6.7792810  33.0364910  25.0234370   7.8187160  42.3300220  25.0476510
   8.2375270  43.1732950  24.8752750   6.8995790  42.4672260  24.8183290
  10.1551060  40.0616400  26.4314350  10.2747270  39.4657540  27.1709190
  11.0145060  40.0986090  26.0115650  12.4938960  40.6153590  25.0076860
  11.9674180  41.1396210  24.4042000  12.8370300  41.2480980  25.6386590
   4.8925350  38.0046960  11.4526570   4.6914410  37.1414320  11.8139910
   4.7217400  37.9180320  10.5148170   5.6694580  48.6353230  26.1634240
   5.1315670  49.3599290  25.8442940   5.9228540  48.1583570  25.3731580
   6.9219830  36.6037750  27.6890170   7.5119520  36.2953600  28.3767990
   6.1040070  36.1317500  27.8450070  11.7413260  36.2203560  27.9223190
  11.0528780  35.5585100  27.8573180  12.4619280  35.7741830  28.3671650
  12.3713660  32.8155190  13.9813450  12.6515950  31.9723090  14.3372870
  11.5979390  33.0478300  14.4952200   3.6908150  35.1047580  11.4404450
   3.9934050  35.1115010  10.5323600   4.4302740  34.7545440  11.9372110
   8.5256790  49.8704440  26.4220890   8.4515490  50.7739580  26.7293260
   7.6235630  49.5516340  26.3942960   6.9093080  34.0482200  12.4260650
   6.5615080  33.3706190  11.8463100   7.1105850  33.5871710  13.2404040
   9.0742120  49.0362950  14.0447250   9.9692910  49.3747920  14.0666010
   9.1059750  48.3142360  13.4171530   2.7138280  44.4090000  12.2734250
   3.1513150  44.9519670  12.9291830   3.1986010  43.5836950  12.2830590
   4.5246000  45.5288040  17.3856480   4.2241540  45.4053010  18.2860390
   4.4183490  44.6696630  16.9772210  16.0536470  47.5666620  26.7513450
  15.4538460  47.6259180  26.0077370  16.1830370  46.6271600  26.8810300
  17.2937920  45.3084440  12.0883160  16.4630880  45.3761090  12.5590390
  17.4709750  46.1988560  11.7850020  16.7494380  42.0531920  14.5917360
  17.5113290  42.6228570  14.6977050  16.7648750  41.4859120  15.3625670
  17.7554350  42.9082020  19.4359290  18.1263180  42.1249340  19.0295260
  18.3956280  43.5971120  19.2576590  14.7388110  44.2918600  24.8489610
  13.9247950  44.7215760  25.1115400  15.1462310  44.9037010  24.2358660
  16.8013550  42.3466290  11.7489880  17.0762390  43.2545170  11.6209100
  16.6124290  42.2828820  12.6851870  13.1989160  35.3711140  13.0443510
  13.6174040  35.1842120  12.2040170  12.8925220  34.5190190  13.3546440
  16.6978890  40.2835280  16.7419310  16.3222490  39.5163210  16.3100600
  15.9682010  40.6657980  17.2294240  16.0878510  39.4306800  26.3758830
  15.8564600  39.2019550  25.4756780  16.3483060  40.3506350  26.3303720
  14.5266580  34.6563230  29.1538530  15.4036760  34.6646630  29.5372530
  14.5387420  33.9194070  28.5430880  15.9729850  38.5092770  20.0426550
  16.4967330  38.0155420  19.4116720  16.5589270  38.6443130  20.7874120
  16.1519570  38.5932640  23.5646100  15.2022280  38.5596180  23.6791090
  16.3332580  39.5032750  23.3295870  15.4629820  37.7666120  15.9818960
  15.9588940  37.5336990  16.7667840  15.2645890  36.9277960  15.5656600
  16.8916980  36.4027070  18.5156640  16.7816260  36.2483110  19.4538910
  17.6524570  35.8748010  18.2732050  15.2382700  32.3421200  24.9739640
  15.8754920  32.9555340  25.3398830  15.3857590  32.3781860  24.0288870
  17.7807250  34.2334990  11.7562780  18.7056560  34.1016170  11.5481070
  17.7583040  34.3127810  12.7099230  17.8545740  35.0045650  14.3819490
  17.0597240  34.9390770  14.9112400  18.0589020  35.9396290  14.3704840
  14.7964160  49.0437200  18.3757880  15.3923230  48.7221770  17.6992300
  15.0542310  48.5709020  19.1671150   2.7026730  45.4755110  28.5248510
   2.6596360  45.1048020  29.4062970   2.8337740  46.4132680  28.6650330
   6.4032760  47.0314700  24.1258230   6.1624120  47.2989260  23.2388750
   7.3435400  47.2020430  24.1809090   8.6087180  33.4947390  27.8814740
   8.5476070  34.0869220  28.6310150   9.5487560  33.3873350  27.7365000
  11.2461740  33.1517450  27.5207030  11.8602150  33.4696740  26.8588110
  11.7911300  32.6666040  28.1402890  17.6636920  49.0509080  24.9268870
  17.1695200  49.4477950  24.2096000  17.0550210  48.4258290  25.3206150
   1.7683000  31.8311710  27.6346090   2.3165990  31.6499760  26.8712200
   1.8338310  31.0405820  28.1702400   2.5414760  48.4217360  25.6446290
   1.9475080  48.2902060  26.3836330   2.5338600  47.5855500  25.1788390
  11.9869780  31.7149590  23.8476320  11.1129620  32.0484700  23.6449250
  11.8780530  31.2422770  24.6728190  12.8941760  33.9220460  25.2318040
  12.5655120  33.1072220  24.8519770  13.8424060  33.8790270  25.1083730
  15.3476370  49.6932500  22.2055610  14.8879340  50.4448310  21.8313630
  14.7188830  48.9738970  22.1470410   5.7772090  48.0020740  21.3803740
   6.2937110  47.3908100  20.8552000   6.4269470  48.5049520  21.8714750
   8.5167590  48.8929230  22.2072720   8.8045400  48.6383530  21.3305730
   9.0290810  48.3406590  22.7978290   9.7344600  32.6319430  22.7869230
   8.9516390  33.1064930  23.0665990   9.4407530  31.7274260  22.6782410
  14.2865670  33.3342530  20.8318320  14.7273760  33.2787630  19.9839920
  14.0173260  34.2500540  20.9028500  16.1504240  32.9657770  18.8427140
  16.0892640  32.0218990  18.6958160  16.9296270  33.0737860  19.3880600
   7.6198820  35.0506180  18.2985260   6.8073330  34.6763070  17.9581140
   8.1240460  34.2951260  18.6006450  12.1223800  31.7148630  19.5368330
  12.7253170  32.2868840  20.0116850  11.3816790  32.2788070  19.3142230
  15.2658400  32.1170190  14.8108610  15.4609030  33.0153640  15.0776040
  14.4788270  31.8857270  15.3041560   3.4510160  33.4630960  13.8484920
   3.9802920  32.6760760  13.7192870   4.0838480  34.1422150  14.0820450
   5.6448000  33.2006100  16.9030310   5.0150740  32.4993410  17.0700440
   5.1053140  33.9610230  16.6863470   8.5839950  49.8145330  29.5740920
   9.5107260  49.5789600  29.6176880   8.5690380  50.6417330  29.0926950
  16.8185010  49.3570900  16.5715170  16.9937200  48.6708640  15.9276090
  16.1206580  49.8817950  16.1791840   5.7703560  32.4790080  29.3382800
   5.4887830  32.9823680  28.5743620   6.1523260  31.6811830  28.9724930
   4.6612660  49.7465740  14.1250480   5.3931480  49.4625020  13.5774370
   4.9206330  49.5079020  15.0149860   3.8227450  45.8630470  14.1296810
   3.1936330  46.3315570  14.6782640   3.9375280  45.0179690  14.5643000
  12.3719020  31.8943660  29.9163270  12.2584470  32.2138270  30.8114790
  13.1888760  32.2956170  29.6200550  15.1517510  49.0415190  29.3981960
  15.9442830  48.5464420  29.1907920  15.4450660  49.7205330  30.0057570
   9.4095210  41.6915150   2.1607280   8.6337310  41.2115590   2.4505850
  10.0608140  41.0120800   1.9863440   3.4261040  42.0034960   3.0383040
   2.5945920  41.7483670   3.4379550   4.0342020  42.0745730   3.7740960
   3.4062300  46.0375050   3.2341060   3.7090340  45.1472790   3.0551280
   4.1505890  46.5945270   3.0063310   8.8504200  44.3672340   2.1677440
   8.7812480  43.4262280   2.0066570   9.6124060  44.4573750   2.7400010
   9.8809370  37.1742720   2.3946370  10.2574190  36.3014600   2.2820040
   9.7828880  37.5101420   1.5036810   5.8522110  38.5154720   2.1888990
   6.3600330  39.0135690   2.8294010   6.3835350  37.7389920   2.0128350
  17.9533040  36.6859910   5.8918340  17.2485210  37.0741620   5.3733450
  18.2190960  37.3810200   6.4939270   4.1358210  33.1553280   6.4552410
   4.1376650  33.6725670   5.6498310   3.3062520  32.6783460   6.4322340
   5.3861060  42.7948460   4.6325910   5.0530440  43.4217380   5.2746980
   5.5627740  43.3210340   3.8527580  13.8994970  36.6093540   2.1002250
  13.1950540  36.8978430   2.6805360  14.2607130  37.4193650   1.7401810
   3.8173540  34.8663240   4.4622860   4.1590350  35.7105290   4.1676730
   2.8789350  35.0146980   4.5788200   4.5980160  44.7629260   6.4475090
   5.2154160  45.4380340   6.1659540   3.7373280  45.1717240   6.3562590
  15.5157750  46.2268670   4.3629730  14.8321270  46.8967780   4.3546400
  16.0552040  46.4249320   3.5974590  16.9681890  36.0548330   2.4911460
  16.0206800  36.0887310   2.6226890  17.2931880  36.8687280   2.8760820
  13.0516490  48.0712800   3.0774910  13.0643650  47.6675090   2.2097170
  12.4991710  48.8460090   2.9736340  12.4501930  42.9742640   4.4057520
  12.8670720  42.7602750   3.5710980  13.1741750  43.2315430   4.9766140
  16.3964030  41.3729860   4.4973760  15.5682660  41.4422950   4.0223890
  16.9914510  41.9584170   4.0289590  13.3606040  38.1599180   5.4428630
  12.9477220  38.9852890   5.6968620  12.6281990  37.5744220   5.2504990
   5.9620530  44.6326640   2.4686510   5.6648820  44.0272110   1.7894290
   6.9120350  44.6703950   2.3575870   4.2067450  37.7202290   4.0846340
   4.7582040  37.8297630   3.3099590   4.7210960  38.0939890   4.8001570
  14.0506140  48.2058510   6.1309610  13.5736700  49.0130700   5.9382220
  13.3667930  47.5536840   6.2835820   5.0538960  44.3708330   9.1194310
   4.1567490  44.5948300   9.3667710   5.0791830  44.4943270   8.1705710
   3.8810180  41.2421650   7.6951680   3.7417950  42.1144450   8.0639080
   2.9991540  40.8994460   7.5499620   5.6790530  47.1843350   9.9036830
   5.6505960  47.5886300   9.0365260   5.5155500  46.2553710   9.7408430
  17.6305350  47.9670450  11.2001000  18.1065070  48.4453340  11.8790080
  18.2512510  47.8987940  10.4746500  17.0338600  45.1583300   8.3601010
  17.1601660  44.9195180   7.4418190  17.0759980  44.3267840   8.8323090
  10.8955340  48.8611300   6.9295820  11.4100010  48.7719310   7.7318250
  10.0524420  49.2071000   7.2223730  16.8862610  37.2115760   9.3250750
  16.2706880  37.7195430   8.7966210  16.5659030  36.3114090   9.2676690
   8.9476930  36.0507650   6.7912940   8.4856300  36.2590670   7.6032880
   8.5455040  35.2367000   6.4883610  13.9481440  37.2716600   7.9209600
  13.0975030  36.9722350   8.2418670  13.7883230  37.5158610   7.0093420
  11.0431150  38.7718350  10.0208390  11.3684560  37.9382100   9.6810620
  11.8311480  39.2946870  10.1686720   6.6983020  33.7286460   3.0467220
   6.9955350  34.6349290   2.9659240   7.2468580  33.2405240   2.4326790
   6.8920550  39.2058280   9.5819140   6.7964150  38.2653010   9.4319540
   7.7352530  39.4273350   9.1867210   8.5976140  35.7006920  10.8049660
   7.9074460  35.5079120  11.4395750   9.3408440  35.9841560  11.3373960
  10.8739110  39.5405360   3.6403580  10.1420230  40.0492170   3.9893680
  10.4763450  38.7235340   3.3392360  11.3365020  34.9939040   3.0526520
  11.3537760  35.4447690   3.8968370  11.0880600  34.0944680   3.2659960
  14.7635770  32.4071220   8.8912900  15.0881540  31.6760880   9.4170880
  14.7992280  32.0884860   7.9893890   7.6124470  40.2761340   3.7921480
   7.9794600  39.8019910   4.5382820   7.4229530  41.1502910   4.1329820
   5.4023840  39.3169980   6.1105690   5.0980910  40.1961960   6.3356050
   6.3570300  39.3769770   6.1463130  14.6893610  42.5196330   2.4998930
  15.4092730  43.0151620   2.1095040  14.4875430  41.8414220   1.8552800
  10.0712410  42.5905390   8.3867930  10.0049720  41.6701060   8.1325520
   9.4417550  42.6880830   9.1012570   4.6600690  40.6156960  10.1416600
   4.3600830  40.7614140   9.2444420   5.4311930  40.0562250  10.0489990
  10.0029140  45.4125960   8.1371730  10.0173680  44.4806920   7.9190640
   9.2954240  45.4985720   8.7761500  16.2140350  42.0533300   7.4840310
  15.4888540  42.6462080   7.2869700  16.7415810  42.0456840   6.6853680
   9.4363040  47.0543530   5.2312230  10.0805260  47.2602910   5.9085650
   9.7992480  46.2931930   4.7783080  10.7095120  45.0575880   3.9489680
  11.3517350  44.3569040   4.0621850  11.2344470  45.8374320   3.7686570
  12.4832740  45.8570780   7.1525740  12.8188980  46.4437470   7.8303660
  11.5633080  45.7263490   7.3823530   8.3121320  45.9062110  10.3213800
   7.9918190  45.1871350  10.8659490   7.6379680  46.5817180  10.3949860
  11.5274920  36.1388270   5.6850600  11.8955740  35.3183480   6.0130170
  10.6673120  36.1990160   6.1006250   8.4876910  38.7927860   5.9088570
   8.9862160  39.2673680   6.5740420   8.6299860  37.8691380   6.1158600
  15.6943770  35.0095820   6.7516960  15.1917370  35.7501220   7.0910770
  16.5100430  35.3979820   6.4353750  15.9891360  47.4237850   1.8732580
  16.1138780  48.2469020   2.3456390  16.8556920  47.2128580   1.5256730
   2.4667170  48.7015130  10.7335290   3.2679900  49.0227180  11.1470690
   1.9518990  48.3410710  11.4555200  11.3031800  44.8095000  10.6810700
  10.6969960  44.8326600   9.9406450  10.9985910  44.0778040  11.2177950
  12.7332170  48.5375290   9.2920110  13.6853920  48.4533310   9.2420350
  12.5860390  49.2017000   9.9653900   7.2402920  42.5959580   9.2106860
   6.4748590  43.1644580   9.1261530   7.4218880  42.3035790   8.3175090
  14.3826270  44.3264910   9.7681880  15.1235740  44.6640670   9.2649340
  13.6198950  44.4956970   9.2151650   2.2188060  39.3318180  10.5721410
   2.2593400  39.0332050  11.4806640   3.0733560  39.7325790  10.4128930
   4.1593870  37.9110280   8.5395900   3.6290330  37.4201230   7.9119240
   4.8281940  38.3394480   8.0053830  13.0571930  42.3779740   8.3037090
  13.4712950  42.5324820   9.1527510  12.1222930  42.5034960   8.4662870
  13.5294100  39.7175900  10.3076240  14.1114870  38.9628220  10.2196720
  13.7055870  40.2483340   9.5307720   4.6466170  34.8772650   8.6193190
   4.5523040  34.2593400   7.8944060   4.0663560  35.6038940   8.3923100
   7.4127610  33.4345890   5.6520580   6.9644910  33.4570150   4.8066130
   6.7792810  33.0364910   6.2490880   7.8187160  42.3300220   6.2733020
   8.2375270  43.1732950   6.1009260   6.8995790  42.4672260   6.0439800
  10.1551060  40.0616400   7.6570860  10.2747270  39.4657540   8.3965700
  11.0145060  40.0986090   7.2372160  12.4938960  40.6153590   6.2333370
  11.9674180  41.1396210   5.6298510  12.8370300  41.2480980   6.8643100
   5.6694580  48.6353230   7.3890750   5.1315670  49.3599290   7.0699450
   5.9228540  48.1583570   6.5988090   6.9219830  36.6037750   8.9146680
   7.5119520  36.2953600   9.6024500   6.1040070  36.1317500   9.0706580
  11.7413260  36.2203560   9.1479700  11.0528780  35.5585100   9.0829690
  12.4619280  35.7741830   9.5928160   8.5256790  49.8704440   7.6477400
   8.4515490  50.7739580   7.9549770   7.6235630  49.5516340   7.6199470
  16.0536470  47.5666620   7.9769960  15.4538460  47.6259180   7.2333880
  16.1830370  46.6271600   8.1066810  14.7388110  44.2918600   6.0746120
  13.9247950  44.7215760   6.3371910  15.1462310  44.9037010   5.4615170
  16.0878510  39.4306800   7.6015340  15.8564600  39.2019550   6.7013290
  16.3483060  40.3506350   7.5560230  14.5266580  34.6563230  10.3795040
  15.4036760  34.6646630  10.7629040  14.5387420  33.9194070   9.7687390
  16.1519570  38.5932640   4.7902610  15.2022280  38.5596180   4.9047600
  16.3332580  39.5032750   4.5552380  15.2382700  32.3421200   6.1996150
  15.8754920  32.9555340   6.5655340  15.3857590  32.3781860   5.2545380
   2.7026730  45.4755110   9.7505020   2.6596360  45.1048020  10.6319480
   2.8337740  46.4132680   9.8906840   6.4032760  47.0314700   5.3514740
   6.1624120  47.2989260   4.4645260   7.3435400  47.2020430   5.4065600
   8.6087180  33.4947390   9.1071250   8.5476070  34.0869220   9.8566660
   9.5487560  33.3873350   8.9621510  11.2461740  33.1517450   8.7463540
  11.8602150  33.4696740   8.0844620  11.7911300  32.6666040   9.3659400
  17.6636920  49.0509080   6.1525380  17.1695200  49.4477950   5.4352510
  17.0550210  48.4258290   6.5462660   1.7683000  31.8311710   8.8602600
   2.3165990  31.6499760   8.0968710   1.8338310  31.0405820   9.3958910
   2.5414760  48.4217360   6.8702800   1.9475080  48.2902060   7.6092840
   2.5338600  47.5855500   6.4044900  11.9869780  31.7149590   5.0732830
  11.1129620  32.0484700   4.8705760  11.8780530  31.2422770   5.8984700
  12.8941760  33.9220460   6.4574550  12.5655120  33.1072220   6.0776280
  13.8424060  33.8790270   6.3340240  15.3476370  49.6932500   3.4312120
  14.8879340  50.4448310   3.0570140  14.7188830  48.9738970   3.3726920
   5.7772090  48.0020740   2.6060250   6.2937110  47.3908100   2.0808510
   6.4269470  48.5049520   3.0971260   8.5167590  48.8929230   3.4329230
   8.8045400  48.6383530   2.5562240   9.0290810  48.3406590   4.0234800
   9.7344600  32.6319430   4.0125740   8.9516390  33.1064930   4.2922500
   9.4407530  31.7274260   3.9038920   8.5839950  49.8145330  10.7997430
   9.5107260  49.5789600  10.8433390   8.5690380  50.6417330  10.3183460
   5.7703560  32.4790080  10.5639310   5.4887830  32.9823680   9.8000130
   6.1523260  31.6811830  10.1981440  12.3719020  31.8943660  11.1419780
  12.2584470  32.2138270  12.0371300  13.1888760  32.2956170  10.8457060
  15.1517510  49.0415190  10.6238470  15.9442830  48.5464420  10.4164430
  15.4450660  49.7205330  11.2314080  11.2777170  21.1392640  56.6028480
  11.1971220  20.2247250  56.3320190  10.8641590  21.6359710  55.8968190
  13.4302640  27.3231850  57.2636880  12.9684170  26.5519090  57.5924050
  14.2428190  27.3497920  57.7689330   9.6565950  29.6089860  56.8840870
   9.0377390  30.0647360  56.3135310  10.5117730  29.7641320  56.4830570
   4.0114380  16.7724860  54.1794280   4.1181130  17.6728590  54.4863040
   3.1006740  16.7242830  53.8888930  13.6633490  15.8949670  55.6505180
  14.4843110  15.4046240  55.6930660  13.6967570  16.4847330  56.4037020
  10.5229300  24.4929100  54.2772780   9.9046570  24.9578550  53.7135500
  11.0352550  25.1856580  54.6942290   7.5001430  13.5802020  57.1097920
   7.8076410  13.0248910  56.3933420   6.5702130  13.7146480  56.9270910
  14.3461910  26.0185530  54.4895550  14.2358240  25.0759860  54.6144970
  14.3430160  26.3801170  55.3758310   9.8882190  21.6450850  53.8458040
   8.9611470  21.5788230  54.0746510  10.0407010  22.5830980  53.7313280
   9.8751270  17.9167850  50.8425200   8.9354940  18.0781810  50.9277660
  10.1934530  18.6353530  50.2961190  13.9179480  23.2071150  54.3493290
  13.2991900  22.8690700  53.7019590  13.9003930  22.5630910  55.0572480
   5.4938830  22.1715590  56.6277770   5.0895830  21.4592840  56.1323670
   5.5801950  21.8268830  57.5165810  12.0944180  22.4457960  51.3566040
  12.5337460  21.6080390  51.2103860  12.8072600  23.0787360  51.4430180
  10.2039560  27.3854030  55.3247280  10.6435470  28.1278360  54.9102670
  10.1426450  27.6280600  56.2486240  15.6761320  13.7000770  49.6707080
  15.3633980  13.7927600  50.5706150  16.4373790  14.2781800  49.6204510
   2.1943460  21.0660570  54.1284420   2.0741060  21.7922660  53.5165690
   1.8844350  20.2963480  53.6512330  12.8709740  30.3723150  52.6810290
  12.7110880  30.0826090  53.5792120  12.7056450  29.5963280  52.1455520
   5.3498120  30.1521680  54.4581910   5.1740600  29.2357220  54.2449710
   4.4953860  30.5108970  54.6979710  12.5735870  27.8810710  51.2408290
  11.8801030  27.8788000  50.5810570  13.3158730  27.4570030  50.8102460
  12.1385800  29.5073420  55.3156780  12.5942750  28.7262800  55.6295400
  12.4778320  30.2180240  55.8597960   4.6607120  14.4095640  57.5108090
   4.2175270  15.1905180  57.1792610   5.2192110  14.7325530  58.2179030
   7.7765940  14.0306340  52.3913920   7.1520120  14.0266210  53.1167230
   7.6896060  13.1637300  51.9949890   4.4521340  19.5329210  55.2389340
   4.2262260  19.3166380  56.1435960   3.6713870  19.9657670  54.8935310
  11.6819100  19.5392580  53.8379990  11.0827990  20.2628380  53.6543610
  12.2298710  19.4769360  53.0556440  10.2883970  18.1756120  55.8683270
  10.6813540  18.4928320  55.0551960  10.6500820  17.2968000  55.9827790
   7.3116500  17.4416070  58.3686540   7.3152560  17.0006020  57.5191080
   8.2067620  17.7633400  58.4758360   3.1618880  17.3242560  57.3280750
   2.8218930  17.8017790  58.0847800   2.3996200  16.8707680  56.9681850
   7.3736650  18.4428150  51.3593300   7.4949470  18.4014630  52.3079120
   6.9885160  19.3052300  51.2040030   6.3858150  20.7529290  50.7576600
   5.8175050  20.3047540  50.1312510   7.0947150  21.1122070  50.2241750
   3.9305630  24.7487480  53.0303010   3.1567890  24.2085100  52.8701730
   4.6600260  24.2294090  52.6920770  10.1503550  15.1390800  52.9658790
   9.3368160  14.6403970  52.8904100   9.9565500  15.9789050  52.5495140
  12.8651940  19.5110450  51.2620950  13.7531560  19.8227680  51.0872290
  12.8357030  18.6382700  50.8701530   3.9743030  24.4167860  56.6681820
   4.4921700  23.6136120  56.6138710   3.5227050  24.3547000  57.5098650
   8.8612530  25.6834140  51.9409120   9.2028230  26.4276370  51.4452440
   8.0325240  25.9965260  52.3033950  15.1366210  20.8222290  50.7300810
  15.0529930  21.2536510  49.8797250  15.8560400  21.2820640  51.1627630
  16.1653460  27.6764550  53.4582940  15.5229620  27.0220170  53.7326660
  15.7784120  28.0819640  52.6823610  11.7439940  25.0049980  57.3054630
  12.0963760  24.4078110  56.6456000  10.8602270  24.6794210  57.4762880
   7.8303220  25.7647670  54.7125040   8.5174350  26.3116880  55.0932630
   7.0435640  26.3088400  54.7474650   7.1330430  22.7693700  54.3250400
   7.5893210  23.5798950  54.5510590   6.7818640  22.4516840  55.1568890
   3.0342210  13.1131350  54.7972920   2.9056840  13.1049250  55.7457840
   2.2104230  13.4514440  54.4463930  14.5550840  26.5681010  49.9959290
  14.3288420  25.8511450  50.5883930  14.1647040  26.3193450  49.1581040
  14.1367090  24.4852950  51.6573450  13.8488790  24.9465640  52.4451330
  14.9319260  24.0250720  51.9257670   6.3535490  27.9779070  51.5877420
   6.3445590  28.7108760  50.9721930   5.4333850  27.7310650  51.6804380
  14.8936950  16.3201720  52.8168630  14.2650110  16.4247390  52.1026860
  14.3988870  16.5398500  53.6062510   9.3395090  28.0407310  50.2502610
   9.4407070  27.8371300  49.3204590   8.4396830  27.7865590  50.4550390
   6.8620980  18.5987670  54.2326510   6.1537130  19.0674010  54.6740120
   7.1465460  17.9409680  54.8671700  10.8936410  15.3238330  55.6722300
  10.7704190  15.3424460  54.7231810  11.8420970  15.3717270  55.7920700
   7.9813200  30.5593630  54.9450280   8.2354700  30.5215020  54.0229650
   7.0325680  30.4326960  54.9378530   5.0656000  16.9072750  51.6077220
   5.9146530  17.3442900  51.5417410   4.6987270  17.2193010  52.4349280
  13.9865780  21.4785510  56.5208790  13.0455920  21.4935740  56.6956480
  14.3009850  20.6921470  56.9669090   3.9647420  23.1605110  50.0812750
   4.7310690  23.0486470  50.6438180   4.0422110  22.4643080  49.4289520
   2.6594180  20.5930180  50.7645640   2.7397770  19.6457690  50.8763040
   3.5513930  20.9237060  50.8706300   3.4608890  30.7425570  57.8680180
   4.1971370  30.1941030  58.1388750   3.8449810  31.6081580  57.7286170
   6.5711200  29.9155880  49.6905750   7.3639810  30.2044710  49.2387540
   6.0515550  29.4848050  49.0118230  15.6241370  29.1426010  51.1142490
  15.3382880  28.7291150  50.2996670  15.4260920  30.0713720  50.9943010
   7.0888600  25.1359290  49.5548100   6.9839240  24.5211640  50.2809480
   6.9212820  24.6125180  48.7711110  10.3291330  24.1979320  50.1590090
   9.7801430  24.6448620  50.8032830  10.9510590  23.6928570  50.6827760
   5.9966450  23.1570240  52.0555390   6.4182870  22.9910110  52.8986780
   6.1217290  22.3470470  51.5610530   8.5094090  22.1807850  49.3032490
   9.0299750  21.4656870  48.9373640   9.1562490  22.8193720  49.6033000
   4.8925350  19.2303470  49.0013550   4.6914410  18.3670830  49.3626890
   4.7217400  19.1436830  48.0635150  12.3713660  14.0411700  51.5300430
  12.6515950  13.1979600  51.8859850  11.5979390  14.2734810  52.0439180
   3.6908150  16.3304090  48.9891430   3.9934050  16.3371520  48.0810580
   4.4302740  15.9801950  49.4859090   6.9093080  15.2738710  49.9747630
   6.5615080  14.5962700  49.3950080   7.1105850  14.8128220  50.7891020
   9.0742120  30.2619460  51.5934230   9.9692910  30.6004430  51.6152990
   9.1059750  29.5398870  50.9658510   2.7138280  25.6346510  49.8221230
   3.1513150  26.1776180  50.4778810   3.1986010  24.8093460  49.8317570
   4.5246000  26.7544550  54.9343460   4.2241540  26.6309520  55.8347370
   4.4183490  25.8953140  54.5259190  17.2937920  26.5340950  49.6370140
  16.4630880  26.6017600  50.1077370  17.4709750  27.4245070  49.3337000
  16.7494380  23.2788430  52.1404340  17.5113290  23.8485080  52.2464030
  16.7648750  22.7115630  52.9112650  17.7554350  24.1338530  56.9846270
  18.1263180  23.3505850  56.5782240  18.3956280  24.8227630  56.8063570
  16.8013550  23.5722800  49.2976860  17.0762390  24.4801680  49.1696080
  16.6124290  23.5085330  50.2338850  13.1989160  16.5967650  50.5930490
  13.6174040  16.4098630  49.7527150  12.8925220  15.7446700  50.9033420
  16.6978890  21.5091790  54.2906290  16.3222490  20.7419720  53.8587580
  15.9682010  21.8914490  54.7781220  15.9729850  19.7349280  57.5913530
  16.4967330  19.2411930  56.9603700  16.5589270  19.8699640  58.3361100
  15.4629820  18.9922630  53.5305940  15.9588940  18.7593500  54.3154820
  15.2645890  18.1534470  53.1143580  16.8916980  17.6283580  56.0643620
  16.7816260  17.4739620  57.0025890  17.6524570  17.1004520  55.8219030
  17.7807250  15.4591500  49.3049760  18.7056560  15.3272680  49.0968050
  17.7583040  15.5384320  50.2586210  17.8545740  16.2302160  51.9306470
  17.0597240  16.1647280  52.4599380  18.0589020  17.1652800  51.9191820
  14.7964160  30.2693710  55.9244860  15.3923230  29.9478280  55.2479280
  15.0542310  29.7965530  56.7158130  14.2865670  14.5599040  58.3805300
  14.7273760  14.5044140  57.5326900  14.0173260  15.4757050  58.4515480
  16.1504240  14.1914280  56.3914120  16.0892640  13.2475500  56.2445140
  16.9296270  14.2994370  56.9367580   7.6198820  16.2762690  55.8472240
   6.8073330  15.9019580  55.5068120   8.1240460  15.5207770  56.1493430
  12.1223800  12.9405140  57.0855310  12.7253170  13.5125350  57.5603830
  11.3816790  13.5044580  56.8629210  15.2658400  13.3426700  52.3595590
  15.4609030  14.2410150  52.6263020  14.4788270  13.1113780  52.8528540
   3.4510160  14.6887470  51.3971900   3.9802920  13.9017270  51.2679850
   4.0838480  15.3678660  51.6307430   5.6448000  14.4262610  54.4517290
   5.0150740  13.7249920  54.6187420   5.1053140  15.1866740  54.2350450
  16.8185010  30.5827410  54.1202150  16.9937200  29.8965150  53.4763070
  16.1206580  31.1074460  53.7278820   4.6612660  30.9722250  51.6737460
   5.3931480  30.6881530  51.1261350   4.9206330  30.7335530  52.5636840
   3.8227450  27.0886980  51.6783790   3.1936330  27.5572080  52.2269620
   3.9375280  26.2436200  52.1129980  11.2777170  21.1392640  37.8284990
  11.1971220  20.2247250  37.5576700  10.8641590  21.6359710  37.1224700
   9.4095210  22.9171660  39.7094260   8.6337310  22.4372100  39.9992830
  10.0608140  22.2377310  39.5350420   3.4261040  23.2291470  40.5870020
   2.5945920  22.9740180  40.9866530   4.0342020  23.3002240  41.3227940
  13.4302640  27.3231850  38.4893390  12.9684170  26.5519090  38.8180560
  14.2428190  27.3497920  38.9945840   3.4062300  27.2631560  40.7828040
   3.7090340  26.3729300  40.6038260   4.1505890  27.8201780  40.5550290
   9.6565950  29.6089860  38.1097380   9.0377390  30.0647360  37.5391820
  10.5117730  29.7641320  37.7087080   8.8504200  25.5928850  39.7164420
   8.7812480  24.6518790  39.5553550   9.6124060  25.6830260  40.2886990
   9.8809370  18.3999230  39.9433350  10.2574190  17.5271110  39.8307020
   9.7828880  18.7357930  39.0523790   4.0114380  16.7724860  35.4050790
   4.1181130  17.6728590  35.7119550   3.1006740  16.7242830  35.1145440
  13.6633490  15.8949670  36.8761690  14.4843110  15.4046240  36.9187170
  13.6967570  16.4847330  37.6293530   5.8522110  19.7411230  39.7375970
   6.3600330  20.2392200  40.3780990   6.3835350  18.9646430  39.5615330
  17.9533040  17.9116420  43.4405320  17.2485210  18.2998130  42.9220430
  18.2190960  18.6066710  44.0426250   4.1358210  14.3809790  44.0039390
   4.1376650  14.8982180  43.1985290   3.3062520  13.9039970  43.9809320
  10.5229300  24.4929100  35.5029290   9.9046570  24.9578550  34.9392010
  11.0352550  25.1856580  35.9198800   5.3861060  24.0204970  42.1812890
   5.0530440  24.6473890  42.8233960   5.5627740  24.5466850  41.4014560
  13.8994970  17.8350050  39.6489230  13.1950540  18.1234940  40.2292340
  14.2607130  18.6450160  39.2888790   3.8173540  16.0919750  42.0109840
   4.1590350  16.9361800  41.7163710   2.8789350  16.2403490  42.1275180
   4.5980160  25.9885770  43.9962070   5.2154160  26.6636850  43.7146520
   3.7373280  26.3973750  43.9049570  15.5157750  27.4525180  41.9116710
  14.8321270  28.1224290  41.9033380  16.0552040  27.6505830  41.1461570
  16.9681890  17.2804840  40.0398440  16.0206800  17.3143820  40.1713870
  17.2931880  18.0943790  40.4247800   7.5001430  13.5802020  38.3354430
   7.8076410  13.0248910  37.6189930   6.5702130  13.7146480  38.1527420
  13.0516490  29.2969310  40.6261890  13.0643650  28.8931600  39.7584150
  12.4991710  30.0716600  40.5223320  14.3461910  26.0185530  35.7152060
  14.2358240  25.0759860  35.8401480  14.3430160  26.3801170  36.6014820
  12.4501930  24.1999150  41.9544500  12.8670720  23.9859260  41.1197960
  13.1741750  24.4571940  42.5253120   9.8882190  21.6450850  35.0714550
   8.9611470  21.5788230  35.3003020  10.0407010  22.5830980  34.9569790
   9.8751270  17.9167850  32.0681710   8.9354940  18.0781810  32.1534170
  10.1934530  18.6353530  31.5217700  16.3964030  22.5986370  42.0460740
  15.5682660  22.6679460  41.5710870  16.9914510  23.1840680  41.5776570
  13.9179480  23.2071150  35.5749800  13.2991900  22.8690700  34.9276100
  13.9003930  22.5630910  36.2828990  13.3606040  19.3855690  42.9915610
  12.9477220  20.2109400  43.2455600  12.6281990  18.8000730  42.7991970
   5.4938830  22.1715590  37.8534280   5.0895830  21.4592840  37.3580180
   5.5801950  21.8268830  38.7422320   5.9620530  25.8583150  40.0173490
   5.6648820  25.2528620  39.3381270   6.9120350  25.8960460  39.9062850
   4.2067450  18.9458800  41.6333320   4.7582040  19.0554140  40.8586570
   4.7210960  19.3196400  42.3488550  14.0506140  29.4315020  43.6796590
  13.5736700  30.2387210  43.4869200  13.3667930  28.7793350  43.8322800
   5.0538960  25.5964840  46.6681290   4.1567490  25.8204810  46.9154690
   5.0791830  25.7199780  45.7192690  12.0944180  22.4457960  32.5822550
  12.5337460  21.6080390  32.4360370  12.8072600  23.0787360  32.6686690
   3.8810180  22.4678160  45.2438660   3.7417950  23.3400960  45.6126060
   2.9991540  22.1250970  45.0986600  10.2039560  27.3854030  36.5503790
  10.6435470  28.1278360  36.1359180  10.1426450  27.6280600  37.4742750
   5.6790530  28.4099860  47.4523810   5.6505960  28.8142810  46.5852240
   5.5155500  27.4810220  47.2895410  15.6761320  13.7000770  30.8963590
  15.3633980  13.7927600  31.7962660  16.4373790  14.2781800  30.8461020
   2.1943460  21.0660570  35.3540930   2.0741060  21.7922660  34.7422200
   1.8844350  20.2963480  34.8768840  17.6305350  29.1926960  48.7487980
  18.1065070  29.6709850  49.4277060  18.2512510  29.1244450  48.0233480
  17.0338600  26.3839810  45.9087990  17.1601660  26.1451690  44.9905170
  17.0759980  25.5524350  46.3810070  10.8955340  30.0867810  44.4782800
  11.4100010  29.9975820  45.2805230  10.0524420  30.4327510  44.7710710
  12.8709740  30.3723150  33.9066800  12.7110880  30.0826090  34.8048630
  12.7056450  29.5963280  33.3712030   5.3498120  30.1521680  35.6838420
   5.1740600  29.2357220  35.4706220   4.4953860  30.5108970  35.9236220
  12.5735870  27.8810710  32.4664800  11.8801030  27.8788000  31.8067080
  13.3158730  27.4570030  32.0358970  12.1385800  29.5073420  36.5413290
  12.5942750  28.7262800  36.8551910  12.4778320  30.2180240  37.0854470
  16.8862610  18.4372270  46.8737730  16.2706880  18.9451940  46.3453190
  16.5659030  17.5370600  46.8163670   4.6607120  14.4095640  38.7364600
   4.2175270  15.1905180  38.4049120   5.2192110  14.7325530  39.4435540
   8.9476930  17.2764160  44.3399920   8.4856300  17.4847180  45.1519860
   8.5455040  16.4623510  44.0370590  13.9481440  18.4973110  45.4696580
  13.0975030  18.1978860  45.7905650  13.7883230  18.7415120  44.5580400
  11.0431150  19.9974860  47.5695370  11.3684560  19.1638610  47.2297600
  11.8311480  20.5203380  47.7173700   7.7765940  14.0306340  33.6170430
   7.1520120  14.0266210  34.3423740   7.6896060  13.1637300  33.2206400
   6.6983020  14.9542970  40.5954200   6.9955350  15.8605800  40.5146220
   7.2468580  14.4661750  39.9813770   4.4521340  19.5329210  36.4645850
   4.2262260  19.3166380  37.3692470   3.6713870  19.9657670  36.1191820
  11.6819100  19.5392580  35.0636500  11.0827990  20.2628380  34.8800120
  12.2298710  19.4769360  34.2812950   6.8920550  20.4314790  47.1306120
   6.7964150  19.4909520  46.9806520   7.7352530  20.6529860  46.7354190
  10.2883970  18.1756120  37.0939780  10.6813540  18.4928320  36.2808470
  10.6500820  17.2968000  37.2084300   8.5976140  16.9263430  48.3536640
   7.9074460  16.7335630  48.9882730   9.3408440  17.2098070  48.8860940
  10.8739110  20.7661870  41.1890560  10.1420230  21.2748680  41.5380660
  10.4763450  19.9491850  40.8879340   7.3116500  17.4416070  39.5943050
   7.3152560  17.0006020  38.7447590   8.2067620  17.7633400  39.7014870
   3.1618880  17.3242560  38.5537260   2.8218930  17.8017790  39.3104310
   2.3996200  16.8707680  38.1938360   7.3736650  18.4428150  32.5849810
   7.4949470  18.4014630  33.5335630   6.9885160  19.3052300  32.4296540
  11.3365020  16.2195550  40.6013500  11.3537760  16.6704200  41.4455350
  11.0880600  15.3201190  40.8146940   6.3858150  20.7529290  31.9833110
   5.8175050  20.3047540  31.3569020   7.0947150  21.1122070  31.4498260
  14.7635770  13.6327730  46.4399880  15.0881540  12.9017390  46.9657860
  14.7992280  13.3141370  45.5380870   7.6124470  21.5017850  41.3408460
   7.9794600  21.0276420  42.0869800   7.4229530  22.3759420  41.6816800
   5.4023840  20.5426490  43.6592670   5.0980910  21.4218470  43.8843030
   6.3570300  20.6026280  43.6950110   3.9305630  24.7487480  34.2559520
   3.1567890  24.2085100  34.0958240   4.6600260  24.2294090  33.9177280
  14.6893610  23.7452840  40.0485910  15.4092730  24.2408130  39.6582020
  14.4875430  23.0670730  39.4039780  10.1503550  15.1390800  34.1915300
   9.3368160  14.6403970  34.1160610   9.9565500  15.9789050  33.7751650
  10.0712410  23.8161900  45.9354910  10.0049720  22.8957570  45.6812500
   9.4417550  23.9137340  46.6499550  12.8651940  19.5110450  32.4877460
  13.7531560  19.8227680  32.3128800  12.8357030  18.6382700  32.0958040
   3.9743030  24.4167860  37.8938330   4.4921700  23.6136120  37.8395220
   3.5227050  24.3547000  38.7355160   8.8612530  25.6834140  33.1665630
   9.2028230  26.4276370  32.6708950   8.0325240  25.9965260  33.5290460
   4.6600690  21.8413470  47.6903580   4.3600830  21.9870650  46.7931400
   5.4311930  21.2818760  47.5976970  10.0029140  26.6382470  45.6858710
  10.0173680  25.7063430  45.4677620   9.2954240  26.7242230  46.3248480
  15.1366210  20.8222290  31.9557320  15.0529930  21.2536510  31.1053760
  15.8560400  21.2820640  32.3884140  16.2140350  23.2789810  45.0327290
  15.4888540  23.8718590  44.8356680  16.7415810  23.2713350  44.2340660
  16.1653460  27.6764550  34.6839450  15.5229620  27.0220170  34.9583170
  15.7784120  28.0819640  33.9080120  11.7439940  25.0049980  38.5311140
  12.0963760  24.4078110  37.8712510  10.8602270  24.6794210  38.7019390
   7.8303220  25.7647670  35.9381550   8.5174350  26.3116880  36.3189140
   7.0435640  26.3088400  35.9731160   7.1330430  22.7693700  35.5506910
   7.5893210  23.5798950  35.7767100   6.7818640  22.4516840  36.3825400
   9.4363040  28.2800040  42.7799210  10.0805260  28.4859420  43.4572630
   9.7992480  27.5188440  42.3270060   3.0342210  13.1131350  36.0229430
   2.9056840  13.1049250  36.9714350   2.2104230  13.4514440  35.6720440
  10.7095120  26.2832390  41.4976660  11.3517350  25.5825550  41.6108830
  11.2344470  27.0630830  41.3173550  14.5550840  26.5681010  31.2215800
  14.3288420  25.8511450  31.8140440  14.1647040  26.3193450  30.3837550
  12.4832740  27.0827290  44.7012720  12.8188980  27.6693980  45.3790640
  11.5633080  26.9520000  44.9310510  14.1367090  24.4852950  32.8829960
  13.8488790  24.9465640  33.6707840  14.9319260  24.0250720  33.1514180
   8.3121320  27.1318620  47.8700780   7.9918190  26.4127860  48.4146470
   7.6379680  27.8073690  47.9436840   6.3535490  27.9779070  32.8133930
   6.3445590  28.7108760  32.1978440   5.4333850  27.7310650  32.9060890
  11.5274920  17.3644780  43.2337580  11.8955740  16.5439990  43.5617150
  10.6673120  17.4246670  43.6493230  14.8936950  16.3201720  34.0425140
  14.2650110  16.4247390  33.3283370  14.3988870  16.5398500  34.8319020
   9.3395090  28.0407310  31.4759120   9.4407070  27.8371300  30.5461100
   8.4396830  27.7865590  31.6806900   6.8620980  18.5987670  35.4583020
   6.1537130  19.0674010  35.8996630   7.1465460  17.9409680  36.0928210
   8.4876910  20.0184370  43.4575550   8.9862160  20.4930190  44.1227400
   8.6299860  19.0947890  43.6645580  10.8936410  15.3238330  36.8978810
  10.7704190  15.3424460  35.9488320  11.8420970  15.3717270  37.0177210
   7.9813200  30.5593630  36.1706790   8.2354700  30.5215020  35.2486160
   7.0325680  30.4326960  36.1635040   5.0656000  16.9072750  32.8333730
   5.9146530  17.3442900  32.7673920   4.6987270  17.2193010  33.6605790
  15.6943770  16.2352330  44.3003940  15.1917370  16.9757730  44.6397750
  16.5100430  16.6236330  43.9840730  13.9865780  21.4785510  37.7465300
  13.0455920  21.4935740  37.9212990  14.3009850  20.6921470  38.1925600
   3.9647420  23.1605110  31.3069260   4.7310690  23.0486470  31.8694690
   4.0422110  22.4643080  30.6546030   2.6594180  20.5930180  31.9902150
   2.7397770  19.6457690  32.1019550   3.5513930  20.9237060  32.0962810
  15.9891360  28.6494360  39.4219560  16.1138780  29.4725530  39.8943370
  16.8556920  28.4385090  39.0743710   3.4608890  30.7425570  39.0936690
   4.1971370  30.1941030  39.3645260   3.8449810  31.6081580  38.9542680
   2.4667170  29.9271640  48.2822270   3.2679900  30.2483690  48.6957670
   1.9518990  29.5667220  49.0042180   6.5711200  29.9155880  30.9162260
   7.3639810  30.2044710  30.4644050   6.0515550  29.4848050  30.2374740
  11.3031800  26.0351510  48.2297680  10.6969960  26.0583110  47.4893430
  10.9985910  25.3034550  48.7664930  12.7332170  29.7631800  46.8407090
  13.6853920  29.6789820  46.7907330  12.5860390  30.4273510  47.5140880
  15.6241370  29.1426010  32.3399000  15.3382880  28.7291150  31.5253180
  15.4260920  30.0713720  32.2199520   7.0888600  25.1359290  30.7804610
   6.9839240  24.5211640  31.5065990   6.9212820  24.6125180  29.9967620
   7.2402920  23.8216090  46.7593840   6.4748590  24.3901090  46.6748510
   7.4218880  23.5292300  45.8662070  10.3291330  24.1979320  31.3846600
   9.7801430  24.6448620  32.0289340  10.9510590  23.6928570  31.9084270
  14.3826270  25.5521420  47.3168860  15.1235740  25.8897180  46.8136320
  13.6198950  25.7213480  46.7638630   2.2188060  20.5574690  48.1208390
   2.2593400  20.2588560  49.0293620   3.0733560  20.9582300  47.9615910
   5.9966450  23.1570240  33.2811900   6.4182870  22.9910110  34.1243290
   6.1217290  22.3470470  32.7867040   4.1593870  19.1366790  46.0882880
   3.6290330  18.6457740  45.4606220   4.8281940  19.5650990  45.5540810
   8.5094090  22.1807850  30.5289000   9.0299750  21.4656870  30.1630150
   9.1562490  22.8193720  30.8289510  13.0571930  23.6036250  45.8524070
  13.4712950  23.7581330  46.7014490  12.1222930  23.7291470  46.0149850
  13.5294100  20.9432410  47.8563220  14.1114870  20.1884730  47.7683700
  13.7055870  21.4739850  47.0794700   4.6466170  16.1029160  46.1680170
   4.5523040  15.4849910  45.4431040   4.0663560  16.8295450  45.9410080
   7.4127610  14.6602400  43.2007560   6.9644910  14.6826660  42.3553110
   6.7792810  14.2621420  43.7977860   7.8187160  23.5556730  43.8220000
   8.2375270  24.3989460  43.6496240   6.8995790  23.6928770  43.5926780
  10.1551060  21.2872910  45.2057840  10.2747270  20.6914050  45.9452680
  11.0145060  21.3242600  44.7859140  12.4938960  21.8410100  43.7820350
  11.9674180  22.3652720  43.1785490  12.8370300  22.4737490  44.4130080
   4.8925350  19.2303470  30.2270060   4.6914410  18.3670830  30.5883400
   4.7217400  19.1436830  29.2891660   5.6694580  29.8609740  44.9377730
   5.1315670  30.5855800  44.6186430   5.9228540  29.3840080  44.1475070
   6.9219830  17.8294260  46.4633660   7.5119520  17.5210110  47.1511480
   6.1040070  17.3574010  46.6193560  11.7413260  17.4460070  46.6966680
  11.0528780  16.7841610  46.6316670  12.4619280  16.9998340  47.1415140
  12.3713660  14.0411700  32.7556940  12.6515950  13.1979600  33.1116360
  11.5979390  14.2734810  33.2695690   3.6908150  16.3304090  30.2147940
   3.9934050  16.3371520  29.3067090   4.4302740  15.9801950  30.7115600
   8.5256790  31.0960950  45.1964380   8.4515490  31.9996090  45.5036750
   7.6235630  30.7772850  45.1686450   6.9093080  15.2738710  31.2004140
   6.5615080  14.5962700  30.6206590   7.1105850  14.8128220  32.0147530
   9.0742120  30.2619460  32.8190740   9.9692910  30.6004430  32.8409500
   9.1059750  29.5398870  32.1915020   2.7138280  25.6346510  31.0477740
   3.1513150  26.1776180  31.7035320   3.1986010  24.8093460  31.0574080
   4.5246000  26.7544550  36.1599970   4.2241540  26.6309520  37.0603880
   4.4183490  25.8953140  35.7515700  16.0536470  28.7923130  45.5256940
  15.4538460  28.8515690  44.7820860  16.1830370  27.8528110  45.6553790
  17.2937920  26.5340950  30.8626650  16.4630880  26.6017600  31.3333880
  17.4709750  27.4245070  30.5593510  16.7494380  23.2788430  33.3660850
  17.5113290  23.8485080  33.4720540  16.7648750  22.7115630  34.1369160
  17.7554350  24.1338530  38.2102780  18.1263180  23.3505850  37.8038750
  18.3956280  24.8227630  38.0320080  14.7388110  25.5175110  43.6233100
  13.9247950  25.9472270  43.8858890  15.1462310  26.1293520  43.0102150
  16.8013550  23.5722800  30.5233370  17.0762390  24.4801680  30.3952590
  16.6124290  23.5085330  31.4595360  13.1989160  16.5967650  31.8187000
  13.6174040  16.4098630  30.9783660  12.8925220  15.7446700  32.1289930
  16.6978890  21.5091790  35.5162800  16.3222490  20.7419720  35.0844090
  15.9682010  21.8914490  36.0037730  16.0878510  20.6563310  45.1502320
  15.8564600  20.4276060  44.2500270  16.3483060  21.5762860  45.1047210
  14.5266580  15.8819740  47.9282020  15.4036760  15.8903140  48.3116020
  14.5387420  15.1450580  47.3174370  15.9729850  19.7349280  38.8170040
  16.4967330  19.2411930  38.1860210  16.5589270  19.8699640  39.5617610
  16.1519570  19.8189150  42.3389590  15.2022280  19.7852690  42.4534580
  16.3332580  20.7289260  42.1039360  15.4629820  18.9922630  34.7562450
  15.9588940  18.7593500  35.5411330  15.2645890  18.1534470  34.3400090
  16.8916980  17.6283580  37.2900130  16.7816260  17.4739620  38.2282400
  17.6524570  17.1004520  37.0475540  15.2382700  13.5677710  43.7483130
  15.8754920  14.1811850  44.1142320  15.3857590  13.6038370  42.8032360
  17.7807250  15.4591500  30.5306270  18.7056560  15.3272680  30.3224560
  17.7583040  15.5384320  31.4842720  17.8545740  16.2302160  33.1562980
  17.0597240  16.1647280  33.6855890  18.0589020  17.1652800  33.1448330
  14.7964160  30.2693710  37.1501370  15.3923230  29.9478280  36.4735790
  15.0542310  29.7965530  37.9414640   2.7026730  26.7011620  47.2992000
   2.6596360  26.3304530  48.1806460   2.8337740  27.6389190  47.4393820
   6.4032760  28.2571210  42.9001720   6.1624120  28.5245770  42.0132240
   7.3435400  28.4276940  42.9552580   8.6087180  14.7203900  46.6558230
   8.5476070  15.3125730  47.4053640   9.5487560  14.6129860  46.5108490
  11.2461740  14.3773960  46.2950520  11.8602150  14.6953250  45.6331600
  11.7911300  13.8922550  46.9146380  17.6636920  30.2765590  43.7012360
  17.1695200  30.6734460  42.9839490  17.0550210  29.6514800  44.0949640
   1.7683000  13.0568220  46.4089580   2.3165990  12.8756270  45.6455690
   1.8338310  12.2662330  46.9445890   2.5414760  29.6473870  44.4189780
   1.9475080  29.5158570  45.1579820   2.5338600  28.8112010  43.9531880
  11.9869780  12.9406100  42.6219810  11.1129620  13.2741210  42.4192740
  11.8780530  12.4679280  43.4471680  12.8941760  15.1476970  44.0061530
  12.5655120  14.3328730  43.6263260  13.8424060  15.1046780  43.8827220
  15.3476370  30.9189010  40.9799100  14.8879340  31.6704820  40.6057120
  14.7188830  30.1995480  40.9213900   5.7772090  29.2277250  40.1547230
   6.2937110  28.6164610  39.6295490   6.4269470  29.7306030  40.6458240
   8.5167590  30.1185740  40.9816210   8.8045400  29.8640040  40.1049220
   9.0290810  29.5663100  41.5721780   9.7344600  13.8575940  41.5612720
   8.9516390  14.3321440  41.8409480   9.4407530  12.9530770  41.4525900
  14.2865670  14.5599040  39.6061810  14.7273760  14.5044140  38.7583410
  14.0173260  15.4757050  39.6771990  16.1504240  14.1914280  37.6170630
  16.0892640  13.2475500  37.4701650  16.9296270  14.2994370  38.1624090
   7.6198820  16.2762690  37.0728750   6.8073330  15.9019580  36.7324630
   8.1240460  15.5207770  37.3749940  12.1223800  12.9405140  38.3111820
  12.7253170  13.5125350  38.7860340  11.3816790  13.5044580  38.0885720
  15.2658400  13.3426700  33.5852100  15.4609030  14.2410150  33.8519530
  14.4788270  13.1113780  34.0785050   3.4510160  14.6887470  32.6228410
   3.9802920  13.9017270  32.4936360   4.0838480  15.3678660  32.8563940
   5.6448000  14.4262610  35.6773800   5.0150740  13.7249920  35.8443930
   5.1053140  15.1866740  35.4606960   8.5839950  31.0401840  48.3484410
   9.5107260  30.8046110  48.3920370   8.5690380  31.8673840  47.8670440
  16.8185010  30.5827410  35.3458660  16.9937200  29.8965150  34.7019580
  16.1206580  31.1074460  34.9535330   5.7703560  13.7046590  48.1126290
   5.4887830  14.2080190  47.3487110   6.1523260  12.9068340  47.7468420
   4.6612660  30.9722250  32.8993970   5.3931480  30.6881530  32.3517860
   4.9206330  30.7335530  33.7893350   3.8227450  27.0886980  32.9040300
   3.1936330  27.5572080  33.4526130   3.9375280  26.2436200  33.3386490
  12.3719020  13.1200170  48.6906760  12.2584470  13.4394780  49.5858280
  13.1888760  13.5212680  48.3944040  15.1517510  30.2671700  48.1725450
  15.9442830  29.7720930  47.9651410  15.4450660  30.9461840  48.7801060
  11.2777170  21.1392640  19.0541500  11.1971220  20.2247250  18.7833210
  10.8641590  21.6359710  18.3481210   9.4095210  22.9171660  20.9350770
   8.6337310  22.4372100  21.2249340  10.0608140  22.2377310  20.7606930
   3.4261040  23.2291470  21.8126530   2.5945920  22.9740180  22.2123040
   4.0342020  23.3002240  22.5484450  13.4302640  27.3231850  19.7149900
  12.9684170  26.5519090  20.0437070  14.2428190  27.3497920  20.2202350
   3.4062300  27.2631560  22.0084550   3.7090340  26.3729300  21.8294770
   4.1505890  27.8201780  21.7806800   9.6565950  29.6089860  19.3353890
   9.0377390  30.0647360  18.7648330  10.5117730  29.7641320  18.9343590
   8.8504200  25.5928850  20.9420930   8.7812480  24.6518790  20.7810060
   9.6124060  25.6830260  21.5143500   9.8809370  18.3999230  21.1689860
  10.2574190  17.5271110  21.0563530   9.7828880  18.7357930  20.2780300
   4.0114380  16.7724860  16.6307300   4.1181130  17.6728590  16.9376060
   3.1006740  16.7242830  16.3401950  13.6633490  15.8949670  18.1018200
  14.4843110  15.4046240  18.1443680  13.6967570  16.4847330  18.8550040
   5.8522110  19.7411230  20.9632480   6.3600330  20.2392200  21.6037500
   6.3835350  18.9646430  20.7871840  17.9533040  17.9116420  24.6661830
  17.2485210  18.2998130  24.1476940  18.2190960  18.6066710  25.2682760
   4.1358210  14.3809790  25.2295900   4.1376650  14.8982180  24.4241800
   3.3062520  13.9039970  25.2065830  10.5229300  24.4929100  16.7285800
   9.9046570  24.9578550  16.1648520  11.0352550  25.1856580  17.1455310
   5.3861060  24.0204970  23.4069400   5.0530440  24.6473890  24.0490470
   5.5627740  24.5466850  22.6271070  13.8994970  17.8350050  20.8745740
  13.1950540  18.1234940  21.4548850  14.2607130  18.6450160  20.5145300
   3.8173540  16.0919750  23.2366350   4.1590350  16.9361800  22.9420220
   2.8789350  16.2403490  23.3531690   4.5980160  25.9885770  25.2218580
   5.2154160  26.6636850  24.9403030   3.7373280  26.3973750  25.1306080
  15.5157750  27.4525180  23.1373220  14.8321270  28.1224290  23.1289890
  16.0552040  27.6505830  22.3718080  16.9681890  17.2804840  21.2654950
  16.0206800  17.3143820  21.3970380  17.2931880  18.0943790  21.6504310
   7.5001430  13.5802020  19.5610940   7.8076410  13.0248910  18.8446440
   6.5702130  13.7146480  19.3783930  13.0516490  29.2969310  21.8518400
  13.0643650  28.8931600  20.9840660  12.4991710  30.0716600  21.7479830
  14.3461910  26.0185530  16.9408570  14.2358240  25.0759860  17.0657990
  14.3430160  26.3801170  17.8271330  12.4501930  24.1999150  23.1801010
  12.8670720  23.9859260  22.3454470  13.1741750  24.4571940  23.7509630
   9.8882190  21.6450850  16.2971060   8.9611470  21.5788230  16.5259530
  10.0407010  22.5830980  16.1826300   9.8751270  17.9167850  13.2938220
   8.9354940  18.0781810  13.3790680  10.1934530  18.6353530  12.7474210
  16.3964030  22.5986370  23.2717250  15.5682660  22.6679460  22.7967380
  16.9914510  23.1840680  22.8033080  13.9179480  23.2071150  16.8006310
  13.2991900  22.8690700  16.1532610  13.9003930  22.5630910  17.5085500
  13.3606040  19.3855690  24.2172120  12.9477220  20.2109400  24.4712110
  12.6281990  18.8000730  24.0248480   5.4938830  22.1715590  19.0790790
   5.0895830  21.4592840  18.5836690   5.5801950  21.8268830  19.9678830
   5.9620530  25.8583150  21.2430000   5.6648820  25.2528620  20.5637780
   6.9120350  25.8960460  21.1319360   4.2067450  18.9458800  22.8589830
   4.7582040  19.0554140  22.0843080   4.7210960  19.3196400  23.5745060
  14.0506140  29.4315020  24.9053100  13.5736700  30.2387210  24.7125710
  13.3667930  28.7793350  25.0579310   5.0538960  25.5964840  27.8937800
   4.1567490  25.8204810  28.1411200   5.0791830  25.7199780  26.9449200
  12.0944180  22.4457960  13.8079060  12.5337460  21.6080390  13.6616880
  12.8072600  23.0787360  13.8943200   3.8810180  22.4678160  26.4695170
   3.7417950  23.3400960  26.8382570   2.9991540  22.1250970  26.3243110
  10.2039560  27.3854030  17.7760300  10.6435470  28.1278360  17.3615690
  10.1426450  27.6280600  18.6999260   5.6790530  28.4099860  28.6780320
   5.6505960  28.8142810  27.8108750   5.5155500  27.4810220  28.5151920
  15.6761320  13.7000770  12.1220100  15.3633980  13.7927600  13.0219170
  16.4373790  14.2781800  12.0717530   2.1943460  21.0660570  16.5797440
   2.0741060  21.7922660  15.9678710   1.8844350  20.2963480  16.1025350
  17.6305350  29.1926960  29.9744490  18.1065070  29.6709850  30.6533570
  18.2512510  29.1244450  29.2489990  17.0338600  26.3839810  27.1344500
  17.1601660  26.1451690  26.2161680  17.0759980  25.5524350  27.6066580
  10.8955340  30.0867810  25.7039310  11.4100010  29.9975820  26.5061740
  10.0524420  30.4327510  25.9967220  12.8709740  30.3723150  15.1323310
  12.7110880  30.0826090  16.0305140  12.7056450  29.5963280  14.5968540
   5.3498120  30.1521680  16.9094930   5.1740600  29.2357220  16.6962730
   4.4953860  30.5108970  17.1492730  12.5735870  27.8810710  13.6921310
  11.8801030  27.8788000  13.0323590  13.3158730  27.4570030  13.2615480
  12.1385800  29.5073420  17.7669800  12.5942750  28.7262800  18.0808420
  12.4778320  30.2180240  18.3110980  16.8862610  18.4372270  28.0994240
  16.2706880  18.9451940  27.5709700  16.5659030  17.5370600  28.0420180
   4.6607120  14.4095640  19.9621110   4.2175270  15.1905180  19.6305630
   5.2192110  14.7325530  20.6692050   8.9476930  17.2764160  25.5656430
   8.4856300  17.4847180  26.3776370   8.5455040  16.4623510  25.2627100
  13.9481440  18.4973110  26.6953090  13.0975030  18.1978860  27.0162160
  13.7883230  18.7415120  25.7836910  11.0431150  19.9974860  28.7951880
  11.3684560  19.1638610  28.4554110  11.8311480  20.5203380  28.9430210
   7.7765940  14.0306340  14.8426940   7.1520120  14.0266210  15.5680250
   7.6896060  13.1637300  14.4462910   6.6983020  14.9542970  21.8210710
   6.9955350  15.8605800  21.7402730   7.2468580  14.4661750  21.2070280
   4.4521340  19.5329210  17.6902360   4.2262260  19.3166380  18.5948980
   3.6713870  19.9657670  17.3448330  11.6819100  19.5392580  16.2893010
  11.0827990  20.2628380  16.1056630  12.2298710  19.4769360  15.5069460
   6.8920550  20.4314790  28.3562630   6.7964150  19.4909520  28.2063030
   7.7352530  20.6529860  27.9610700  10.2883970  18.1756120  18.3196290
  10.6813540  18.4928320  17.5064980  10.6500820  17.2968000  18.4340810
   8.5976140  16.9263430  29.5793150   7.9074460  16.7335630  30.2139240
   9.3408440  17.2098070  30.1117450  10.8739110  20.7661870  22.4147070
  10.1420230  21.2748680  22.7637170  10.4763450  19.9491850  22.1135850
   7.3116500  17.4416070  20.8199560   7.3152560  17.0006020  19.9704100
   8.2067620  17.7633400  20.9271380   3.1618880  17.3242560  19.7793770
   2.8218930  17.8017790  20.5360820   2.3996200  16.8707680  19.4194870
   7.3736650  18.4428150  13.8106320   7.4949470  18.4014630  14.7592140
   6.9885160  19.3052300  13.6553050  11.3365020  16.2195550  21.8270010
  11.3537760  16.6704200  22.6711860  11.0880600  15.3201190  22.0403450
   6.3858150  20.7529290  13.2089620   5.8175050  20.3047540  12.5825530
   7.0947150  21.1122070  12.6754770  14.7635770  13.6327730  27.6656390
  15.0881540  12.9017390  28.1914370  14.7992280  13.3141370  26.7637380
   7.6124470  21.5017850  22.5664970   7.9794600  21.0276420  23.3126310
   7.4229530  22.3759420  22.9073310   5.4023840  20.5426490  24.8849180
   5.0980910  21.4218470  25.1099540   6.3570300  20.6026280  24.9206620
   3.9305630  24.7487480  15.4816030   3.1567890  24.2085100  15.3214750
   4.6600260  24.2294090  15.1433790  14.6893610  23.7452840  21.2742420
  15.4092730  24.2408130  20.8838530  14.4875430  23.0670730  20.6296290
  10.1503550  15.1390800  15.4171810   9.3368160  14.6403970  15.3417120
   9.9565500  15.9789050  15.0008160  10.0712410  23.8161900  27.1611420
  10.0049720  22.8957570  26.9069010   9.4417550  23.9137340  27.8756060
  12.8651940  19.5110450  13.7133970  13.7531560  19.8227680  13.5385310
  12.8357030  18.6382700  13.3214550   3.9743030  24.4167860  19.1194840
   4.4921700  23.6136120  19.0651730   3.5227050  24.3547000  19.9611670
   8.8612530  25.6834140  14.3922140   9.2028230  26.4276370  13.8965460
   8.0325240  25.9965260  14.7546970   4.6600690  21.8413470  28.9160090
   4.3600830  21.9870650  28.0187910   5.4311930  21.2818760  28.8233480
  10.0029140  26.6382470  26.9115220  10.0173680  25.7063430  26.6934130
   9.2954240  26.7242230  27.5504990  15.1366210  20.8222290  13.1813830
  15.0529930  21.2536510  12.3310270  15.8560400  21.2820640  13.6140650
  16.2140350  23.2789810  26.2583800  15.4888540  23.8718590  26.0613190
  16.7415810  23.2713350  25.4597170  16.1653460  27.6764550  15.9095960
  15.5229620  27.0220170  16.1839680  15.7784120  28.0819640  15.1336630
  11.7439940  25.0049980  19.7567650  12.0963760  24.4078110  19.0969020
  10.8602270  24.6794210  19.9275900   7.8303220  25.7647670  17.1638060
   8.5174350  26.3116880  17.5445650   7.0435640  26.3088400  17.1987670
   7.1330430  22.7693700  16.7763420   7.5893210  23.5798950  17.0023610
   6.7818640  22.4516840  17.6081910   9.4363040  28.2800040  24.0055720
  10.0805260  28.4859420  24.6829140   9.7992480  27.5188440  23.5526570
   3.0342210  13.1131350  17.2485940   2.9056840  13.1049250  18.1970860
   2.2104230  13.4514440  16.8976950  10.7095120  26.2832390  22.7233170
  11.3517350  25.5825550  22.8365340  11.2344470  27.0630830  22.5430060
  14.5550840  26.5681010  12.4472310  14.3288420  25.8511450  13.0396950
  14.1647040  26.3193450  11.6094060  12.4832740  27.0827290  25.9269230
  12.8188980  27.6693980  26.6047150  11.5633080  26.9520000  26.1567020
  14.1367090  24.4852950  14.1086470  13.8488790  24.9465640  14.8964350
  14.9319260  24.0250720  14.3770690   8.3121320  27.1318620  29.0957290
   7.9918190  26.4127860  29.6402980   7.6379680  27.8073690  29.1693350
   6.3535490  27.9779070  14.0390440   6.3445590  28.7108760  13.4234950
   5.4333850  27.7310650  14.1317400  11.5274920  17.3644780  24.4594090
  11.8955740  16.5439990  24.7873660  10.6673120  17.4246670  24.8749740
  14.8936950  16.3201720  15.2681650  14.2650110  16.4247390  14.5539880
  14.3988870  16.5398500  16.0575530   9.3395090  28.0407310  12.7015630
   9.4407070  27.8371300  11.7717610   8.4396830  27.7865590  12.9063410
   6.8620980  18.5987670  16.6839530   6.1537130  19.0674010  17.1253140
   7.1465460  17.9409680  17.3184720   8.4876910  20.0184370  24.6832060
   8.9862160  20.4930190  25.3483910   8.6299860  19.0947890  24.8902090
  10.8936410  15.3238330  18.1235320  10.7704190  15.3424460  17.1744830
  11.8420970  15.3717270  18.2433720   7.9813200  30.5593630  17.3963300
   8.2354700  30.5215020  16.4742670   7.0325680  30.4326960  17.3891550
   5.0656000  16.9072750  14.0590240   5.9146530  17.3442900  13.9930430
   4.6987270  17.2193010  14.8862300  15.6943770  16.2352330  25.5260450
  15.1917370  16.9757730  25.8654260  16.5100430  16.6236330  25.2097240
  13.9865780  21.4785510  18.9721810  13.0455920  21.4935740  19.1469500
  14.3009850  20.6921470  19.4182110   3.9647420  23.1605110  12.5325770
   4.7310690  23.0486470  13.0951200   4.0422110  22.4643080  11.8802540
   2.6594180  20.5930180  13.2158660   2.7397770  19.6457690  13.3276060
   3.5513930  20.9237060  13.3219320  15.9891360  28.6494360  20.6476070
  16.1138780  29.4725530  21.1199880  16.8556920  28.4385090  20.3000220
   3.4608890  30.7425570  20.3193200   4.1971370  30.1941030  20.5901770
   3.8449810  31.6081580  20.1799190   2.4667170  29.9271640  29.5078780
   3.2679900  30.2483690  29.9214180   1.9518990  29.5667220  30.2298690
   6.5711200  29.9155880  12.1418770   7.3639810  30.2044710  11.6900560
   6.0515550  29.4848050  11.4631250  11.3031800  26.0351510  29.4554190
  10.6969960  26.0583110  28.7149940  10.9985910  25.3034550  29.9921440
  12.7332170  29.7631800  28.0663600  13.6853920  29.6789820  28.0163840
  12.5860390  30.4273510  28.7397390  15.6241370  29.1426010  13.5655510
  15.3382880  28.7291150  12.7509690  15.4260920  30.0713720  13.4456030
   7.0888600  25.1359290  12.0061120   6.9839240  24.5211640  12.7322500
   6.9212820  24.6125180  11.2224130   7.2402920  23.8216090  27.9850350
   6.4748590  24.3901090  27.9005020   7.4218880  23.5292300  27.0918580
  10.3291330  24.1979320  12.6103110   9.7801430  24.6448620  13.2545850
  10.9510590  23.6928570  13.1340780  14.3826270  25.5521420  28.5425370
  15.1235740  25.8897180  28.0392830  13.6198950  25.7213480  27.9895140
   2.2188060  20.5574690  29.3464900   2.2593400  20.2588560  30.2550130
   3.0733560  20.9582300  29.1872420   5.9966450  23.1570240  14.5068410
   6.4182870  22.9910110  15.3499800   6.1217290  22.3470470  14.0123550
   4.1593870  19.1366790  27.3139390   3.6290330  18.6457740  26.6862730
   4.8281940  19.5650990  26.7797320   8.5094090  22.1807850  11.7545510
   9.0299750  21.4656870  11.3886660   9.1562490  22.8193720  12.0546020
  13.0571930  23.6036250  27.0780580  13.4712950  23.7581330  27.9271000
  12.1222930  23.7291470  27.2406360  13.5294100  20.9432410  29.0819730
  14.1114870  20.1884730  28.9940210  13.7055870  21.4739850  28.3051210
   4.6466170  16.1029160  27.3936680   4.5523040  15.4849910  26.6687550
   4.0663560  16.8295450  27.1666590   7.4127610  14.6602400  24.4264070
   6.9644910  14.6826660  23.5809620   6.7792810  14.2621420  25.0234370
   7.8187160  23.5556730  25.0476510   8.2375270  24.3989460  24.8752750
   6.8995790  23.6928770  24.8183290  10.1551060  21.2872910  26.4314350
  10.2747270  20.6914050  27.1709190  11.0145060  21.3242600  26.0115650
  12.4938960  21.8410100  25.0076860  11.9674180  22.3652720  24.4042000
  12.8370300  22.4737490  25.6386590   4.8925350  19.2303470  11.4526570
   4.6914410  18.3670830  11.8139910   4.7217400  19.1436830  10.5148170
   5.6694580  29.8609740  26.1634240   5.1315670  30.5855800  25.8442940
   5.9228540  29.3840080  25.3731580   6.9219830  17.8294260  27.6890170
   7.5119520  17.5210110  28.3767990   6.1040070  17.3574010  27.8450070
  11.7413260  17.4460070  27.9223190  11.0528780  16.7841610  27.8573180
  12.4619280  16.9998340  28.3671650  12.3713660  14.0411700  13.9813450
  12.6515950  13.1979600  14.3372870  11.5979390  14.2734810  14.4952200
   3.6908150  16.3304090  11.4404450   3.9934050  16.3371520  10.5323600
   4.4302740  15.9801950  11.9372110   8.5256790  31.0960950  26.4220890
   8.4515490  31.9996090  26.7293260   7.6235630  30.7772850  26.3942960
   6.9093080  15.2738710  12.4260650   6.5615080  14.5962700  11.8463100
   7.1105850  14.8128220  13.2404040   9.0742120  30.2619460  14.0447250
   9.9692910  30.6004430  14.0666010   9.1059750  29.5398870  13.4171530
   2.7138280  25.6346510  12.2734250   3.1513150  26.1776180  12.9291830
   3.1986010  24.8093460  12.2830590   4.5246000  26.7544550  17.3856480
   4.2241540  26.6309520  18.2860390   4.4183490  25.8953140  16.9772210
  16.0536470  28.7923130  26.7513450  15.4538460  28.8515690  26.0077370
  16.1830370  27.8528110  26.8810300  17.2937920  26.5340950  12.0883160
  16.4630880  26.6017600  12.5590390  17.4709750  27.4245070  11.7850020
  16.7494380  23.2788430  14.5917360  17.5113290  23.8485080  14.6977050
  16.7648750  22.7115630  15.3625670  17.7554350  24.1338530  19.4359290
  18.1263180  23.3505850  19.0295260  18.3956280  24.8227630  19.2576590
  14.7388110  25.5175110  24.8489610  13.9247950  25.9472270  25.1115400
  15.1462310  26.1293520  24.2358660  16.8013550  23.5722800  11.7489880
  17.0762390  24.4801680  11.6209100  16.6124290  23.5085330  12.6851870
  13.1989160  16.5967650  13.0443510  13.6174040  16.4098630  12.2040170
  12.8925220  15.7446700  13.3546440  16.6978890  21.5091790  16.7419310
  16.3222490  20.7419720  16.3100600  15.9682010  21.8914490  17.2294240
  16.0878510  20.6563310  26.3758830  15.8564600  20.4276060  25.4756780
  16.3483060  21.5762860  26.3303720  14.5266580  15.8819740  29.1538530
  15.4036760  15.8903140  29.5372530  14.5387420  15.1450580  28.5430880
  15.9729850  19.7349280  20.0426550  16.4967330  19.2411930  19.4116720
  16.5589270  19.8699640  20.7874120  16.1519570  19.8189150  23.5646100
  15.2022280  19.7852690  23.6791090  16.3332580  20.7289260  23.3295870
  15.4629820  18.9922630  15.9818960  15.9588940  18.7593500  16.7667840
  15.2645890  18.1534470  15.5656600  16.8916980  17.6283580  18.5156640
  16.7816260  17.4739620  19.4538910  17.6524570  17.1004520  18.2732050
  15.2382700  13.5677710  24.9739640  15.8754920  14.1811850  25.3398830
  15.3857590  13.6038370  24.0288870  17.7807250  15.4591500  11.7562780
  18.7056560  15.3272680  11.5481070  17.7583040  15.5384320  12.7099230
  17.8545740  16.2302160  14.3819490  17.0597240  16.1647280  14.9112400
  18.0589020  17.1652800  14.3704840  14.7964160  30.2693710  18.3757880
  15.3923230  29.9478280  17.6992300  15.0542310  29.7965530  19.1671150
   2.7026730  26.7011620  28.5248510   2.6596360  26.3304530  29.4062970
   2.8337740  27.6389190  28.6650330   6.4032760  28.2571210  24.1258230
   6.1624120  28.5245770  23.2388750   7.3435400  28.4276940  24.1809090
   8.6087180  14.7203900  27.8814740   8.5476070  15.3125730  28.6310150
   9.5487560  14.6129860  27.7365000  11.2461740  14.3773960  27.5207030
  11.8602150  14.6953250  26.8588110  11.7911300  13.8922550  28.1402890
  17.6636920  30.2765590  24.9268870  17.1695200  30.6734460  24.2096000
  17.0550210  29.6514800  25.3206150   1.7683000  13.0568220  27.6346090
   2.3165990  12.8756270  26.8712200   1.8338310  12.2662330  28.1702400
   2.5414760  29.6473870  25.6446290   1.9475080  29.5158570  26.3836330
   2.5338600  28.8112010  25.1788390  11.9869780  12.9406100  23.8476320
  11.1129620  13.2741210  23.6449250  11.8780530  12.4679280  24.6728190
  12.8941760  15.1476970  25.2318040  12.5655120  14.3328730  24.8519770
  13.8424060  15.1046780  25.1083730  15.3476370  30.9189010  22.2055610
  14.8879340  31.6704820  21.8313630  14.7188830  30.1995480  22.1470410
   5.7772090  29.2277250  21.3803740   6.2937110  28.6164610  20.8552000
   6.4269470  29.7306030  21.8714750   8.5167590  30.1185740  22.2072720
   8.8045400  29.8640040  21.3305730   9.0290810  29.5663100  22.7978290
   9.7344600  13.8575940  22.7869230   8.9516390  14.3321440  23.0665990
   9.4407530  12.9530770  22.6782410  14.2865670  14.5599040  20.8318320
  14.7273760  14.5044140  19.9839920  14.0173260  15.4757050  20.9028500
  16.1504240  14.1914280  18.8427140  16.0892640  13.2475500  18.6958160
  16.9296270  14.2994370  19.3880600   7.6198820  16.2762690  18.2985260
   6.8073330  15.9019580  17.9581140   8.1240460  15.5207770  18.6006450
  12.1223800  12.9405140  19.5368330  12.7253170  13.5125350  20.0116850
  11.3816790  13.5044580  19.3142230  15.2658400  13.3426700  14.8108610
  15.4609030  14.2410150  15.0776040  14.4788270  13.1113780  15.3041560
   3.4510160  14.6887470  13.8484920   3.9802920  13.9017270  13.7192870
   4.0838480  15.3678660  14.0820450   5.6448000  14.4262610  16.9030310
   5.0150740  13.7249920  17.0700440   5.1053140  15.1866740  16.6863470
   8.5839950  31.0401840  29.5740920   9.5107260  30.8046110  29.6176880
   8.5690380  31.8673840  29.0926950  16.8185010  30.5827410  16.5715170
  16.9937200  29.8965150  15.9276090  16.1206580  31.1074460  16.1791840
   5.7703560  13.7046590  29.3382800   5.4887830  14.2080190  28.5743620
   6.1523260  12.9068340  28.9724930   4.6612660  30.9722250  14.1250480
   5.3931480  30.6881530  13.5774370   4.9206330  30.7335530  15.0149860
   3.8227450  27.0886980  14.1296810   3.1936330  27.5572080  14.6782640
   3.9375280  26.2436200  14.5643000  12.3719020  13.1200170  29.9163270
  12.2584470  13.4394780  30.8114790  13.1888760  13.5212680  29.6200550
  15.1517510  30.2671700  29.3981960  15.9442830  29.7720930  29.1907920
  15.4450660  30.9461840  30.0057570   9.4095210  22.9171660   2.1607280
   8.6337310  22.4372100   2.4505850  10.0608140  22.2377310   1.9863440
   3.4261040  23.2291470   3.0383040   2.5945920  22.9740180   3.4379550
   4.0342020  23.3002240   3.7740960   3.4062300  27.2631560   3.2341060
   3.7090340  26.3729300   3.0551280   4.1505890  27.8201780   3.0063310
   8.8504200  25.5928850   2.1677440   8.7812480  24.6518790   2.0066570
   9.6124060  25.6830260   2.7400010   9.8809370  18.3999230   2.3946370
  10.2574190  17.5271110   2.2820040   9.7828880  18.7357930   1.5036810
   5.8522110  19.7411230   2.1888990   6.3600330  20.2392200   2.8294010
   6.3835350  18.9646430   2.0128350  17.9533040  17.9116420   5.8918340
  17.2485210  18.2998130   5.3733450  18.2190960  18.6066710   6.4939270
   4.1358210  14.3809790   6.4552410   4.1376650  14.8982180   5.6498310
   3.3062520  13.9039970   6.4322340   5.3861060  24.0204970   4.6325910
   5.0530440  24.6473890   5.2746980   5.5627740  24.5466850   3.8527580
  13.8994970  17.8350050   2.1002250  13.1950540  18.1234940   2.6805360
  14.2607130  18.6450160   1.7401810   3.8173540  16.0919750   4.4622860
   4.1590350  16.9361800   4.1676730   2.8789350  16.2403490   4.5788200
   4.5980160  25.9885770   6.4475090   5.2154160  26.6636850   6.1659540
   3.7373280  26.3973750   6.3562590  15.5157750  27.4525180   4.3629730
  14.8321270  28.1224290   4.3546400  16.0552040  27.6505830   3.5974590
  16.9681890  17.2804840   2.4911460  16.0206800  17.3143820   2.6226890
  17.2931880  18.0943790   2.8760820  13.0516490  29.2969310   3.0774910
  13.0643650  28.8931600   2.2097170  12.4991710  30.0716600   2.9736340
  12.4501930  24.1999150   4.4057520  12.8670720  23.9859260   3.5710980
  13.1741750  24.4571940   4.9766140  16.3964030  22.5986370   4.4973760
  15.5682660  22.6679460   4.0223890  16.9914510  23.1840680   4.0289590
  13.3606040  19.3855690   5.4428630  12.9477220  20.2109400   5.6968620
  12.6281990  18.8000730   5.2504990   5.9620530  25.8583150   2.4686510
   5.6648820  25.2528620   1.7894290   6.9120350  25.8960460   2.3575870
   4.2067450  18.9458800   4.0846340   4.7582040  19.0554140   3.3099590
   4.7210960  19.3196400   4.8001570  14.0506140  29.4315020   6.1309610
  13.5736700  30.2387210   5.9382220  13.3667930  28.7793350   6.2835820
   5.0538960  25.5964840   9.1194310   4.1567490  25.8204810   9.3667710
   5.0791830  25.7199780   8.1705710   3.8810180  22.4678160   7.6951680
   3.7417950  23.3400960   8.0639080   2.9991540  22.1250970   7.5499620
   5.6790530  28.4099860   9.9036830   5.6505960  28.8142810   9.0365260
   5.5155500  27.4810220   9.7408430  17.6305350  29.1926960  11.2001000
  18.1065070  29.6709850  11.8790080  18.2512510  29.1244450  10.4746500
  17.0338600  26.3839810   8.3601010  17.1601660  26.1451690   7.4418190
  17.0759980  25.5524350   8.8323090  10.8955340  30.0867810   6.9295820
  11.4100010  29.9975820   7.7318250  10.0524420  30.4327510   7.2223730
  16.8862610  18.4372270   9.3250750  16.2706880  18.9451940   8.7966210
  16.5659030  17.5370600   9.2676690   8.9476930  17.2764160   6.7912940
   8.4856300  17.4847180   7.6032880   8.5455040  16.4623510   6.4883610
  13.9481440  18.4973110   7.9209600  13.0975030  18.1978860   8.2418670
  13.7883230  18.7415120   7.0093420  11.0431150  19.9974860  10.0208390
  11.3684560  19.1638610   9.6810620  11.8311480  20.5203380  10.1686720
   6.6983020  14.9542970   3.0467220   6.9955350  15.8605800   2.9659240
   7.2468580  14.4661750   2.4326790   6.8920550  20.4314790   9.5819140
   6.7964150  19.4909520   9.4319540   7.7352530  20.6529860   9.1867210
   8.5976140  16.9263430  10.8049660   7.9074460  16.7335630  11.4395750
   9.3408440  17.2098070  11.3373960  10.8739110  20.7661870   3.6403580
  10.1420230  21.2748680   3.9893680  10.4763450  19.9491850   3.3392360
  11.3365020  16.2195550   3.0526520  11.3537760  16.6704200   3.8968370
  11.0880600  15.3201190   3.2659960  14.7635770  13.6327730   8.8912900
  15.0881540  12.9017390   9.4170880  14.7992280  13.3141370   7.9893890
   7.6124470  21.5017850   3.7921480   7.9794600  21.0276420   4.5382820
   7.4229530  22.3759420   4.1329820   5.4023840  20.5426490   6.1105690
   5.0980910  21.4218470   6.3356050   6.3570300  20.6026280   6.1463130
  14.6893610  23.7452840   2.4998930  15.4092730  24.2408130   2.1095040
  14.4875430  23.0670730   1.8552800  10.0712410  23.8161900   8.3867930
  10.0049720  22.8957570   8.1325520   9.4417550  23.9137340   9.1012570
   4.6600690  21.8413470  10.1416600   4.3600830  21.9870650   9.2444420
   5.4311930  21.2818760  10.0489990  10.0029140  26.6382470   8.1371730
  10.0173680  25.7063430   7.9190640   9.2954240  26.7242230   8.7761500
  16.2140350  23.2789810   7.4840310  15.4888540  23.8718590   7.2869700
  16.7415810  23.2713350   6.6853680   9.4363040  28.2800040   5.2312230
  10.0805260  28.4859420   5.9085650   9.7992480  27.5188440   4.7783080
  10.7095120  26.2832390   3.9489680  11.3517350  25.5825550   4.0621850
  11.2344470  27.0630830   3.7686570  12.4832740  27.0827290   7.1525740
  12.8188980  27.6693980   7.8303660  11.5633080  26.9520000   7.3823530
   8.3121320  27.1318620  10.3213800   7.9918190  26.4127860  10.8659490
   7.6379680  27.8073690  10.3949860  11.5274920  17.3644780   5.6850600
  11.8955740  16.5439990   6.0130170  10.6673120  17.4246670   6.1006250
   8.4876910  20.0184370   5.9088570   8.9862160  20.4930190   6.5740420
   8.6299860  19.0947890   6.1158600  15.6943770  16.2352330   6.7516960
  15.1917370  16.9757730   7.0910770  16.5100430  16.6236330   6.4353750
  15.9891360  28.6494360   1.8732580  16.1138780  29.4725530   2.3456390
  16.8556920  28.4385090   1.5256730   2.4667170  29.9271640  10.7335290
   3.2679900  30.2483690  11.1470690   1.9518990  29.5667220  11.4555200
  11.3031800  26.0351510  10.6810700  10.6969960  26.0583110   9.9406450
  10.9985910  25.3034550  11.2177950  12.7332170  29.7631800   9.2920110
  13.6853920  29.6789820   9.2420350  12.5860390  30.4273510   9.9653900
   7.2402920  23.8216090   9.2106860   6.4748590  24.3901090   9.1261530
   7.4218880  23.5292300   8.3175090  14.3826270  25.5521420   9.7681880
  15.1235740  25.8897180   9.2649340  13.6198950  25.7213480   9.2151650
   2.2188060  20.5574690  10.5721410   2.2593400  20.2588560  11.4806640
   3.0733560  20.9582300  10.4128930   4.1593870  19.1366790   8.5395900
   3.6290330  18.6457740   7.9119240   4.8281940  19.5650990   8.0053830
  13.0571930  23.6036250   8.3037090  13.4712950  23.7581330   9.1527510
  12.1222930  23.7291470   8.4662870  13.5294100  20.9432410  10.3076240
  14.1114870  20.1884730  10.2196720  13.7055870  21.4739850   9.5307720
   4.6466170  16.1029160   8.6193190   4.5523040  15.4849910   7.8944060
   4.0663560  16.8295450   8.3923100   7.4127610  14.6602400   5.6520580
   6.9644910  14.6826660   4.8066130   6.7792810  14.2621420   6.2490880
   7.8187160  23.5556730   6.2733020   8.2375270  24.3989460   6.1009260
   6.8995790  23.6928770   6.0439800  10.1551060  21.2872910   7.6570860
  10.2747270  20.6914050   8.3965700  11.0145060  21.3242600   7.2372160
  12.4938960  21.8410100   6.2333370  11.9674180  22.3652720   5.6298510
  12.8370300  22.4737490   6.8643100   5.6694580  29.8609740   7.3890750
   5.1315670  30.5855800   7.0699450   5.9228540  29.3840080   6.5988090
   6.9219830  17.8294260   8.9146680   7.5119520  17.5210110   9.6024500
   6.1040070  17.3574010   9.0706580  11.7413260  17.4460070   9.1479700
  11.0528780  16.7841610   9.0829690  12.4619280  16.9998340   9.5928160
   8.5256790  31.0960950   7.6477400   8.4515490  31.9996090   7.9549770
   7.6235630  30.7772850   7.6199470  16.0536470  28.7923130   7.9769960
  15.4538460  28.8515690   7.2333880  16.1830370  27.8528110   8.1066810
  14.7388110  25.5175110   6.0746120  13.9247950  25.9472270   6.3371910
  15.1462310  26.1293520   5.4615170  16.0878510  20.6563310   7.6015340
  15.8564600  20.4276060   6.7013290  16.3483060  21.5762860   7.5560230
  14.5266580  15.8819740  10.3795040  15.4036760  15.8903140  10.7629040
  14.5387420  15.1450580   9.7687390  16.1519570  19.8189150   4.7902610
  15.2022280  19.7852690   4.9047600  16.3332580  20.7289260   4.5552380
  15.2382700  13.5677710   6.1996150  15.8754920  14.1811850   6.5655340
  15.3857590  13.6038370   5.2545380   2.7026730  26.7011620   9.7505020
   2.6596360  26.3304530  10.6319480   2.8337740  27.6389190   9.8906840
   6.4032760  28.2571210   5.3514740   6.1624120  28.5245770   4.4645260
   7.3435400  28.4276940   5.4065600   8.6087180  14.7203900   9.1071250
   8.5476070  15.3125730   9.8566660   9.5487560  14.6129860   8.9621510
  11.2461740  14.3773960   8.7463540  11.8602150  14.6953250   8.0844620
  11.7911300  13.8922550   9.3659400  17.6636920  30.2765590   6.1525380
  17.1695200  30.6734460   5.4352510  17.0550210  29.6514800   6.5462660
   1.7683000  13.0568220   8.8602600   2.3165990  12.8756270   8.0968710
   1.8338310  12.2662330   9.3958910   2.5414760  29.6473870   6.8702800
   1.9475080  29.5158570   7.6092840   2.5338600  28.8112010   6.4044900
  11.9869780  12.9406100   5.0732830  11.1129620  13.2741210   4.8705760
  11.8780530  12.4679280   5.8984700  12.8941760  15.1476970   6.4574550
  12.5655120  14.3328730   6.0776280  13.8424060  15.1046780   6.3340240
  15.3476370  30.9189010   3.4312120  14.8879340  31.6704820   3.0570140
  14.7188830  30.1995480   3.3726920   5.7772090  29.2277250   2.6060250
   6.2937110  28.6164610   2.0808510   6.4269470  29.7306030   3.0971260
   8.5167590  30.1185740   3.4329230   8.8045400  29.8640040   2.5562240
   9.0290810  29.5663100   4.0234800   9.7344600  13.8575940   4.0125740
   8.9516390  14.3321440   4.2922500   9.4407530  12.9530770   3.9038920
   8.5839950  31.0401840  10.7997430   9.5107260  30.8046110  10.8433390
   8.5690380  31.8673840  10.3183460   5.7703560  13.7046590  10.5639310
   5.4887830  14.2080190   9.8000130   6.1523260  12.9068340  10.1981440
  12.3719020  13.1200170  11.1419780  12.2584470  13.4394780  12.0371300
  13.1888760  13.5212680  10.8457060  15.1517510  30.2671700  10.6238470
  15.9442830  29.7720930  10.4164430  15.4450660  30.9461840  11.2314080
  13.4302640   8.5488360  57.2636880  12.9684170   7.7775600  57.5924050
  14.2428190   8.5754430  57.7689330   9.6565950  10.8346370  56.8840870
   9.0377390  11.2903870  56.3135310  10.5117730  10.9897830  56.4830570
  10.5229300   5.7185610  54.2772780   9.9046570   6.1835060  53.7135500
  11.0352550   6.4113090  54.6942290  14.3461910   7.2442040  54.4895550
  14.2358240   6.3016370  54.6144970  14.3430160   7.6057680  55.3758310
   9.8882190   2.8707360  53.8458040   8.9611470   2.8044740  54.0746510
  10.0407010   3.8087490  53.7313280  13.9179480   4.4327660  54.3493290
  13.2991900   4.0947210  53.7019590  13.9003930   3.7887420  55.0572480
   5.4938830   3.3972100  56.6277770   5.0895830   2.6849350  56.1323670
   5.5801950   3.0525340  57.5165810  12.0944180   3.6714470  51.3566040
  12.5337460   2.8336900  51.2103860  12.8072600   4.3043870  51.4430180
  10.2039560   8.6110540  55.3247280  10.6435470   9.3534870  54.9102670
  10.1426450   8.8537110  56.2486240   2.1943460   2.2917080  54.1284420
   2.0741060   3.0179170  53.5165690   1.8844350   1.5219990  53.6512330
  12.8709740  11.5979660  52.6810290  12.7110880  11.3082600  53.5792120
  12.7056450  10.8219790  52.1455520   5.3498120  11.3778190  54.4581910
   5.1740600  10.4613730  54.2449710   4.4953860  11.7365480  54.6979710
  12.5735870   9.1067220  51.2408290  11.8801030   9.1044510  50.5810570
  13.3158730   8.6826540  50.8102460  12.1385800  10.7329930  55.3156780
  12.5942750   9.9519310  55.6295400  12.4778320  11.4436750  55.8597960
   6.3858150   1.9785800  50.7576600   5.8175050   1.5304050  50.1312510
   7.0947150   2.3378580  50.2241750   3.9305630   5.9743990  53.0303010
   3.1567890   5.4341610  52.8701730   4.6600260   5.4550600  52.6920770
   3.9743030   5.6424370  56.6681820   4.4921700   4.8392630  56.6138710
   3.5227050   5.5803510  57.5098650   8.8612530   6.9090650  51.9409120
   9.2028230   7.6532880  51.4452440   8.0325240   7.2221770  52.3033950
  15.1366210   2.0478800  50.7300810  15.0529930   2.4793020  49.8797250
  15.8560400   2.5077150  51.1627630  16.1653460   8.9021060  53.4582940
  15.5229620   8.2476680  53.7326660  15.7784120   9.3076150  52.6823610
  11.7439940   6.2306490  57.3054630  12.0963760   5.6334620  56.6456000
  10.8602270   5.9050720  57.4762880   7.8303220   6.9904180  54.7125040
   8.5174350   7.5373390  55.0932630   7.0435640   7.5344910  54.7474650
   7.1330430   3.9950210  54.3250400   7.5893210   4.8055460  54.5510590
   6.7818640   3.6773350  55.1568890  14.5550840   7.7937520  49.9959290
  14.3288420   7.0767960  50.5883930  14.1647040   7.5449960  49.1581040
  14.1367090   5.7109460  51.6573450  13.8488790   6.1722150  52.4451330
  14.9319260   5.2507230  51.9257670   6.3535490   9.2035580  51.5877420
   6.3445590   9.9365270  50.9721930   5.4333850   8.9567160  51.6804380
   9.3395090   9.2663820  50.2502610   9.4407070   9.0627810  49.3204590
   8.4396830   9.0122100  50.4550390   7.9813200  11.7850140  54.9450280
   8.2354700  11.7471530  54.0229650   7.0325680  11.6583470  54.9378530
  13.9865780   2.7042020  56.5208790  13.0455920   2.7192250  56.6956480
  14.3009850   1.9177980  56.9669090   3.9647420   4.3861620  50.0812750
   4.7310690   4.2742980  50.6438180   4.0422110   3.6899590  49.4289520
   3.4608890  11.9682080  57.8680180   4.1971370  11.4197540  58.1388750
   3.8449810  12.8338090  57.7286170   6.5711200  11.1412390  49.6905750
   7.3639810  11.4301220  49.2387540   6.0515550  10.7104560  49.0118230
  15.6241370  10.3682520  51.1142490  15.3382880   9.9547660  50.2996670
  15.4260920  11.2970230  50.9943010   7.0888600   6.3615800  49.5548100
   6.9839240   5.7468150  50.2809480   6.9212820   5.8381690  48.7711110
  10.3291330   5.4235830  50.1590090   9.7801430   5.8705130  50.8032830
  10.9510590   4.9185080  50.6827760   5.9966450   4.3826750  52.0555390
   6.4182870   4.2166620  52.8986780   6.1217290   3.5726980  51.5610530
   8.5094090   3.4064360  49.3032490   9.0299750   2.6913380  48.9373640
   9.1562490   4.0450230  49.6033000   9.0742120  11.4875970  51.5934230
   9.9692910  11.8260940  51.6152990   9.1059750  10.7655380  50.9658510
   2.7138280   6.8603020  49.8221230   3.1513150   7.4032690  50.4778810
   3.1986010   6.0349970  49.8317570   4.5246000   7.9801060  54.9343460
   4.2241540   7.8566030  55.8347370   4.4183490   7.1209650  54.5259190
  17.2937920   7.7597460  49.6370140  16.4630880   7.8274110  50.1077370
  17.4709750   8.6501580  49.3337000  16.7494380   4.5044940  52.1404340
  17.5113290   5.0741590  52.2464030  16.7648750   3.9372140  52.9112650
  17.7554350   5.3595040  56.9846270  18.1263180   4.5762360  56.5782240
  18.3956280   6.0484140  56.8063570  16.8013550   4.7979310  49.2976860
  17.0762390   5.7058190  49.1696080  16.6124290   4.7341840  50.2338850
  16.6978890   2.7348300  54.2906290  16.3222490   1.9676230  53.8587580
  15.9682010   3.1171000  54.7781220  14.7964160  11.4950220  55.9244860
  15.3923230  11.1734790  55.2479280  15.0542310  11.0222040  56.7158130
  16.8185010  11.8083920  54.1202150  16.9937200  11.1221660  53.4763070
  16.1206580  12.3330970  53.7278820   4.6612660  12.1978760  51.6737460
   5.3931480  11.9138040  51.1261350   4.9206330  11.9592040  52.5636840
   3.8227450   8.3143490  51.6783790   3.1936330   8.7828590  52.2269620
   3.9375280   7.4692710  52.1129980   9.4095210   4.1428170  39.7094260
   8.6337310   3.6628610  39.9992830  10.0608140   3.4633820  39.5350420
   3.4261040   4.4547980  40.5870020   2.5945920   4.1996690  40.9866530
   4.0342020   4.5258750  41.3227940  13.4302640   8.5488360  38.4893390
  12.9684170   7.7775600  38.8180560  14.2428190   8.5754430  38.9945840
   3.4062300   8.4888070  40.7828040   3.7090340   7.5985810  40.6038260
   4.1505890   9.0458290  40.5550290   9.6565950  10.8346370  38.1097380
   9.0377390  11.2903870  37.5391820  10.5117730  10.9897830  37.7087080
   8.8504200   6.8185360  39.7164420   8.7812480   5.8775300  39.5553550
   9.6124060   6.9086770  40.2886990  10.5229300   5.7185610  35.5029290
   9.9046570   6.1835060  34.9392010  11.0352550   6.4113090  35.9198800
   5.3861060   5.2461480  42.1812890   5.0530440   5.8730400  42.8233960
   5.5627740   5.7723360  41.4014560   4.5980160   7.2142280  43.9962070
   5.2154160   7.8893360  43.7146520   3.7373280   7.6230260  43.9049570
  15.5157750   8.6781690  41.9116710  14.8321270   9.3480800  41.9033380
  16.0552040   8.8762340  41.1461570  13.0516490  10.5225820  40.6261890
  13.0643650  10.1188110  39.7584150  12.4991710  11.2973110  40.5223320
  14.3461910   7.2442040  35.7152060  14.2358240   6.3016370  35.8401480
  14.3430160   7.6057680  36.6014820  12.4501930   5.4255660  41.9544500
  12.8670720   5.2115770  41.1197960  13.1741750   5.6828450  42.5253120
   9.8882190   2.8707360  35.0714550   8.9611470   2.8044740  35.3003020
  10.0407010   3.8087490  34.9569790  16.3964030   3.8242880  42.0460740
  15.5682660   3.8935970  41.5710870  16.9914510   4.4097190  41.5776570
  13.9179480   4.4327660  35.5749800  13.2991900   4.0947210  34.9276100
  13.9003930   3.7887420  36.2828990   5.4938830   3.3972100  37.8534280
   5.0895830   2.6849350  37.3580180   5.5801950   3.0525340  38.7422320
   5.9620530   7.0839660  40.0173490   5.6648820   6.4785130  39.3381270
   6.9120350   7.1216970  39.9062850  14.0506140  10.6571530  43.6796590
  13.5736700  11.4643720  43.4869200  13.3667930  10.0049860  43.8322800
   5.0538960   6.8221350  46.6681290   4.1567490   7.0461320  46.9154690
   5.0791830   6.9456290  45.7192690  12.0944180   3.6714470  32.5822550
  12.5337460   2.8336900  32.4360370  12.8072600   4.3043870  32.6686690
   3.8810180   3.6934670  45.2438660   3.7417950   4.5657470  45.6126060
   2.9991540   3.3507480  45.0986600  10.2039560   8.6110540  36.5503790
  10.6435470   9.3534870  36.1359180  10.1426450   8.8537110  37.4742750
   5.6790530   9.6356370  47.4523810   5.6505960  10.0399320  46.5852240
   5.5155500   8.7066730  47.2895410   2.1943460   2.2917080  35.3540930
   2.0741060   3.0179170  34.7422200   1.8844350   1.5219990  34.8768840
  17.6305350  10.4183470  48.7487980  18.1065070  10.8966360  49.4277060
  18.2512510  10.3500960  48.0233480  17.0338600   7.6096320  45.9087990
  17.1601660   7.3708200  44.9905170  17.0759980   6.7780860  46.3810070
  10.8955340  11.3124320  44.4782800  11.4100010  11.2232330  45.2805230
  10.0524420  11.6584020  44.7710710  12.8709740  11.5979660  33.9066800
  12.7110880  11.3082600  34.8048630  12.7056450  10.8219790  33.3712030
   5.3498120  11.3778190  35.6838420   5.1740600  10.4613730  35.4706220
   4.4953860  11.7365480  35.9236220  12.5735870   9.1067220  32.4664800
  11.8801030   9.1044510  31.8067080  13.3158730   8.6826540  32.0358970
  12.1385800  10.7329930  36.5413290  12.5942750   9.9519310  36.8551910
  12.4778320  11.4436750  37.0854470   6.3858150   1.9785800  31.9833110
   5.8175050   1.5304050  31.3569020   7.0947150   2.3378580  31.4498260
   7.6124470   2.7274360  41.3408460   7.9794600   2.2532930  42.0869800
   7.4229530   3.6015930  41.6816800   5.4023840   1.7683000  43.6592670
   5.0980910   2.6474980  43.8843030   6.3570300   1.8282790  43.6950110
   3.9305630   5.9743990  34.2559520   3.1567890   5.4341610  34.0958240
   4.6600260   5.4550600  33.9177280  14.6893610   4.9709350  40.0485910
  15.4092730   5.4664640  39.6582020  14.4875430   4.2927240  39.4039780
  10.0712410   5.0418410  45.9354910  10.0049720   4.1214080  45.6812500
   9.4417550   5.1393850  46.6499550   3.9743030   5.6424370  37.8938330
   4.4921700   4.8392630  37.8395220   3.5227050   5.5803510  38.7355160
   8.8612530   6.9090650  33.1665630   9.2028230   7.6532880  32.6708950
   8.0325240   7.2221770  33.5290460   4.6600690   3.0669980  47.6903580
   4.3600830   3.2127160  46.7931400   5.4311930   2.5075270  47.5976970
  10.0029140   7.8638980  45.6858710  10.0173680   6.9319940  45.4677620
   9.2954240   7.9498740  46.3248480  15.1366210   2.0478800  31.9557320
  15.0529930   2.4793020  31.1053760  15.8560400   2.5077150  32.3884140
  16.2140350   4.5046320  45.0327290  15.4888540   5.0975100  44.8356680
  16.7415810   4.4969860  44.2340660  16.1653460   8.9021060  34.6839450
  15.5229620   8.2476680  34.9583170  15.7784120   9.3076150  33.9080120
  11.7439940   6.2306490  38.5311140  12.0963760   5.6334620  37.8712510
  10.8602270   5.9050720  38.7019390   7.8303220   6.9904180  35.9381550
   8.5174350   7.5373390  36.3189140   7.0435640   7.5344910  35.9731160
   7.1330430   3.9950210  35.5506910   7.5893210   4.8055460  35.7767100
   6.7818640   3.6773350  36.3825400   9.4363040   9.5056550  42.7799210
  10.0805260   9.7115930  43.4572630   9.7992480   8.7444950  42.3270060
  10.7095120   7.5088900  41.4976660  11.3517350   6.8082060  41.6108830
  11.2344470   8.2887340  41.3173550  14.5550840   7.7937520  31.2215800
  14.3288420   7.0767960  31.8140440  14.1647040   7.5449960  30.3837550
  12.4832740   8.3083800  44.7012720  12.8188980   8.8950490  45.3790640
  11.5633080   8.1776510  44.9310510  14.1367090   5.7109460  32.8829960
  13.8488790   6.1722150  33.6707840  14.9319260   5.2507230  33.1514180
   8.3121320   8.3575130  47.8700780   7.9918190   7.6384370  48.4146470
   7.6379680   9.0330200  47.9436840   6.3535490   9.2035580  32.8133930
   6.3445590   9.9365270  32.1978440   5.4333850   8.9567160  32.9060890
   9.3395090   9.2663820  31.4759120   9.4407070   9.0627810  30.5461100
   8.4396830   9.0122100  31.6806900   7.9813200  11.7850140  36.1706790
   8.2354700  11.7471530  35.2486160   7.0325680  11.6583470  36.1635040
  13.9865780   2.7042020  37.7465300  13.0455920   2.7192250  37.9212990
  14.3009850   1.9177980  38.1925600   3.9647420   4.3861620  31.3069260
   4.7310690   4.2742980  31.8694690   4.0422110   3.6899590  30.6546030
  15.9891360   9.8750870  39.4219560  16.1138780  10.6982040  39.8943370
  16.8556920   9.6641600  39.0743710   3.4608890  11.9682080  39.0936690
   4.1971370  11.4197540  39.3645260   3.8449810  12.8338090  38.9542680
   2.4667170  11.1528150  48.2822270   3.2679900  11.4740200  48.6957670
   1.9518990  10.7923730  49.0042180   6.5711200  11.1412390  30.9162260
   7.3639810  11.4301220  30.4644050   6.0515550  10.7104560  30.2374740
  11.3031800   7.2608020  48.2297680  10.6969960   7.2839620  47.4893430
  10.9985910   6.5291060  48.7664930  12.7332170  10.9888310  46.8407090
  13.6853920  10.9046330  46.7907330  12.5860390  11.6530020  47.5140880
  15.6241370  10.3682520  32.3399000  15.3382880   9.9547660  31.5253180
  15.4260920  11.2970230  32.2199520   7.0888600   6.3615800  30.7804610
   6.9839240   5.7468150  31.5065990   6.9212820   5.8381690  29.9967620
   7.2402920   5.0472600  46.7593840   6.4748590   5.6157600  46.6748510
   7.4218880   4.7548810  45.8662070  10.3291330   5.4235830  31.3846600
   9.7801430   5.8705130  32.0289340  10.9510590   4.9185080  31.9084270
  14.3826270   6.7777930  47.3168860  15.1235740   7.1153690  46.8136320
  13.6198950   6.9469990  46.7638630   2.2188060   1.7831200  48.1208390
   2.2593400   1.4845070  49.0293620   3.0733560   2.1838810  47.9615910
   5.9966450   4.3826750  33.2811900   6.4182870   4.2166620  34.1243290
   6.1217290   3.5726980  32.7867040   8.5094090   3.4064360  30.5289000
   9.0299750   2.6913380  30.1630150   9.1562490   4.0450230  30.8289510
  13.0571930   4.8292760  45.8524070  13.4712950   4.9837840  46.7014490
  12.1222930   4.9547980  46.0149850   7.8187160   4.7813240  43.8220000
   8.2375270   5.6245970  43.6496240   6.8995790   4.9185280  43.5926780
  10.1551060   2.5129420  45.2057840  10.2747270   1.9170560  45.9452680
  11.0145060   2.5499110  44.7859140  12.4938960   3.0666610  43.7820350
  11.9674180   3.5909230  43.1785490  12.8370300   3.6994000  44.4130080
   5.6694580  11.0866250  44.9377730   5.1315670  11.8112310  44.6186430
   5.9228540  10.6096590  44.1475070   8.5256790  12.3217460  45.1964380
   8.4515490  13.2252600  45.5036750   7.6235630  12.0029360  45.1686450
   9.0742120  11.4875970  32.8190740   9.9692910  11.8260940  32.8409500
   9.1059750  10.7655380  32.1915020   2.7138280   6.8603020  31.0477740
   3.1513150   7.4032690  31.7035320   3.1986010   6.0349970  31.0574080
   4.5246000   7.9801060  36.1599970   4.2241540   7.8566030  37.0603880
   4.4183490   7.1209650  35.7515700  16.0536470  10.0179640  45.5256940
  15.4538460  10.0772200  44.7820860  16.1830370   9.0784620  45.6553790
  17.2937920   7.7597460  30.8626650  16.4630880   7.8274110  31.3333880
  17.4709750   8.6501580  30.5593510  16.7494380   4.5044940  33.3660850
  17.5113290   5.0741590  33.4720540  16.7648750   3.9372140  34.1369160
  17.7554350   5.3595040  38.2102780  18.1263180   4.5762360  37.8038750
  18.3956280   6.0484140  38.0320080  14.7388110   6.7431620  43.6233100
  13.9247950   7.1728780  43.8858890  15.1462310   7.3550030  43.0102150
  16.8013550   4.7979310  30.5233370  17.0762390   5.7058190  30.3952590
  16.6124290   4.7341840  31.4595360  16.6978890   2.7348300  35.5162800
  16.3222490   1.9676230  35.0844090  15.9682010   3.1171000  36.0037730
  16.0878510   1.8819820  45.1502320  15.8564600   1.6532570  44.2500270
  16.3483060   2.8019370  45.1047210  14.7964160  11.4950220  37.1501370
  15.3923230  11.1734790  36.4735790  15.0542310  11.0222040  37.9414640
   2.7026730   7.9268130  47.2992000   2.6596360   7.5561040  48.1806460
   2.8337740   8.8645700  47.4393820   6.4032760   9.4827720  42.9001720
   6.1624120   9.7502280  42.0132240   7.3435400   9.6533450  42.9552580
  17.6636920  11.5022100  43.7012360  17.1695200  11.8990970  42.9839490
  17.0550210  10.8771310  44.0949640   2.5414760  10.8730380  44.4189780
   1.9475080  10.7415080  45.1579820   2.5338600  10.0368520  43.9531880
  15.3476370  12.1445520  40.9799100  14.8879340  12.8961330  40.6057120
  14.7188830  11.4251990  40.9213900   5.7772090  10.4533760  40.1547230
   6.2937110   9.8421120  39.6295490   6.4269470  10.9562540  40.6458240
   8.5167590  11.3442250  40.9816210   8.8045400  11.0896550  40.1049220
   9.0290810  10.7919610  41.5721780   8.5839950  12.2658350  48.3484410
   9.5107260  12.0302620  48.3920370   8.5690380  13.0930350  47.8670440
  16.8185010  11.8083920  35.3458660  16.9937200  11.1221660  34.7019580
  16.1206580  12.3330970  34.9535330   4.6612660  12.1978760  32.8993970
   5.3931480  11.9138040  32.3517860   4.9206330  11.9592040  33.7893350
   3.8227450   8.3143490  32.9040300   3.1936330   8.7828590  33.4526130
   3.9375280   7.4692710  33.3386490  15.1517510  11.4928210  48.1725450
  15.9442830  10.9977440  47.9651410  15.4450660  12.1718350  48.7801060
   9.4095210   4.1428170  20.9350770   8.6337310   3.6628610  21.2249340
  10.0608140   3.4633820  20.7606930   3.4261040   4.4547980  21.8126530
   2.5945920   4.1996690  22.2123040   4.0342020   4.5258750  22.5484450
  13.4302640   8.5488360  19.7149900  12.9684170   7.7775600  20.0437070
  14.2428190   8.5754430  20.2202350   3.4062300   8.4888070  22.0084550
   3.7090340   7.5985810  21.8294770   4.1505890   9.0458290  21.7806800
   9.6565950  10.8346370  19.3353890   9.0377390  11.2903870  18.7648330
  10.5117730  10.9897830  18.9343590   8.8504200   6.8185360  20.9420930
   8.7812480   5.8775300  20.7810060   9.6124060   6.9086770  21.5143500
  10.5229300   5.7185610  16.7285800   9.9046570   6.1835060  16.1648520
  11.0352550   6.4113090  17.1455310   5.3861060   5.2461480  23.4069400
   5.0530440   5.8730400  24.0490470   5.5627740   5.7723360  22.6271070
   4.5980160   7.2142280  25.2218580   5.2154160   7.8893360  24.9403030
   3.7373280   7.6230260  25.1306080  15.5157750   8.6781690  23.1373220
  14.8321270   9.3480800  23.1289890  16.0552040   8.8762340  22.3718080
  13.0516490  10.5225820  21.8518400  13.0643650  10.1188110  20.9840660
  12.4991710  11.2973110  21.7479830  14.3461910   7.2442040  16.9408570
  14.2358240   6.3016370  17.0657990  14.3430160   7.6057680  17.8271330
  12.4501930   5.4255660  23.1801010  12.8670720   5.2115770  22.3454470
  13.1741750   5.6828450  23.7509630   9.8882190   2.8707360  16.2971060
   8.9611470   2.8044740  16.5259530  10.0407010   3.8087490  16.1826300
  16.3964030   3.8242880  23.2717250  15.5682660   3.8935970  22.7967380
  16.9914510   4.4097190  22.8033080  13.9179480   4.4327660  16.8006310
  13.2991900   4.0947210  16.1532610  13.9003930   3.7887420  17.5085500
   5.4938830   3.3972100  19.0790790   5.0895830   2.6849350  18.5836690
   5.5801950   3.0525340  19.9678830   5.9620530   7.0839660  21.2430000
   5.6648820   6.4785130  20.5637780   6.9120350   7.1216970  21.1319360
  14.0506140  10.6571530  24.9053100  13.5736700  11.4643720  24.7125710
  13.3667930  10.0049860  25.0579310   5.0538960   6.8221350  27.8937800
   4.1567490   7.0461320  28.1411200   5.0791830   6.9456290  26.9449200
  12.0944180   3.6714470  13.8079060  12.5337460   2.8336900  13.6616880
  12.8072600   4.3043870  13.8943200   3.8810180   3.6934670  26.4695170
   3.7417950   4.5657470  26.8382570   2.9991540   3.3507480  26.3243110
  10.2039560   8.6110540  17.7760300  10.6435470   9.3534870  17.3615690
  10.1426450   8.8537110  18.6999260   5.6790530   9.6356370  28.6780320
   5.6505960  10.0399320  27.8108750   5.5155500   8.7066730  28.5151920
   2.1943460   2.2917080  16.5797440   2.0741060   3.0179170  15.9678710
   1.8844350   1.5219990  16.1025350  17.6305350  10.4183470  29.9744490
  18.1065070  10.8966360  30.6533570  18.2512510  10.3500960  29.2489990
  17.0338600   7.6096320  27.1344500  17.1601660   7.3708200  26.2161680
  17.0759980   6.7780860  27.6066580  10.8955340  11.3124320  25.7039310
  11.4100010  11.2232330  26.5061740  10.0524420  11.6584020  25.9967220
  12.8709740  11.5979660  15.1323310  12.7110880  11.3082600  16.0305140
  12.7056450  10.8219790  14.5968540   5.3498120  11.3778190  16.9094930
   5.1740600  10.4613730  16.6962730   4.4953860  11.7365480  17.1492730
  12.5735870   9.1067220  13.6921310  11.8801030   9.1044510  13.0323590
  13.3158730   8.6826540  13.2615480  12.1385800  10.7329930  17.7669800
  12.5942750   9.9519310  18.0808420  12.4778320  11.4436750  18.3110980
   6.3858150   1.9785800  13.2089620   5.8175050   1.5304050  12.5825530
   7.0947150   2.3378580  12.6754770   7.6124470   2.7274360  22.5664970
   7.9794600   2.2532930  23.3126310   7.4229530   3.6015930  22.9073310
   5.4023840   1.7683000  24.8849180   5.0980910   2.6474980  25.1099540
   6.3570300   1.8282790  24.9206620   3.9305630   5.9743990  15.4816030
   3.1567890   5.4341610  15.3214750   4.6600260   5.4550600  15.1433790
  14.6893610   4.9709350  21.2742420  15.4092730   5.4664640  20.8838530
  14.4875430   4.2927240  20.6296290  10.0712410   5.0418410  27.1611420
  10.0049720   4.1214080  26.9069010   9.4417550   5.1393850  27.8756060
   3.9743030   5.6424370  19.1194840   4.4921700   4.8392630  19.0651730
   3.5227050   5.5803510  19.9611670   8.8612530   6.9090650  14.3922140
   9.2028230   7.6532880  13.8965460   8.0325240   7.2221770  14.7546970
   4.6600690   3.0669980  28.9160090   4.3600830   3.2127160  28.0187910
   5.4311930   2.5075270  28.8233480  10.0029140   7.8638980  26.9115220
  10.0173680   6.9319940  26.6934130   9.2954240   7.9498740  27.5504990
  15.1366210   2.0478800  13.1813830  15.0529930   2.4793020  12.3310270
  15.8560400   2.5077150  13.6140650  16.2140350   4.5046320  26.2583800
  15.4888540   5.0975100  26.0613190  16.7415810   4.4969860  25.4597170
  16.1653460   8.9021060  15.9095960  15.5229620   8.2476680  16.1839680
  15.7784120   9.3076150  15.1336630  11.7439940   6.2306490  19.7567650
  12.0963760   5.6334620  19.0969020  10.8602270   5.9050720  19.9275900
   7.8303220   6.9904180  17.1638060   8.5174350   7.5373390  17.5445650
   7.0435640   7.5344910  17.1987670   7.1330430   3.9950210  16.7763420
   7.5893210   4.8055460  17.0023610   6.7818640   3.6773350  17.6081910
   9.4363040   9.5056550  24.0055720  10.0805260   9.7115930  24.6829140
   9.7992480   8.7444950  23.5526570  10.7095120   7.5088900  22.7233170
  11.3517350   6.8082060  22.8365340  11.2344470   8.2887340  22.5430060
  14.5550840   7.7937520  12.4472310  14.3288420   7.0767960  13.0396950
  14.1647040   7.5449960  11.6094060  12.4832740   8.3083800  25.9269230
  12.8188980   8.8950490  26.6047150  11.5633080   8.1776510  26.1567020
  14.1367090   5.7109460  14.1086470  13.8488790   6.1722150  14.8964350
  14.9319260   5.2507230  14.3770690   8.3121320   8.3575130  29.0957290
   7.9918190   7.6384370  29.6402980   7.6379680   9.0330200  29.1693350
   6.3535490   9.2035580  14.0390440   6.3445590   9.9365270  13.4234950
   5.4333850   8.9567160  14.1317400   9.3395090   9.2663820  12.7015630
   9.4407070   9.0627810  11.7717610   8.4396830   9.0122100  12.9063410
   7.9813200  11.7850140  17.3963300   8.2354700  11.7471530  16.4742670
   7.0325680  11.6583470  17.3891550  13.9865780   2.7042020  18.9721810
  13.0455920   2.7192250  19.1469500  14.3009850   1.9177980  19.4182110
   3.9647420   4.3861620  12.5325770   4.7310690   4.2742980  13.0951200
   4.0422110   3.6899590  11.8802540  15.9891360   9.8750870  20.6476070
  16.1138780  10.6982040  21.1199880  16.8556920   9.6641600  20.3000220
   3.4608890  11.9682080  20.3193200   4.1971370  11.4197540  20.5901770
   3.8449810  12.8338090  20.1799190   2.4667170  11.1528150  29.5078780
   3.2679900  11.4740200  29.9214180   1.9518990  10.7923730  30.2298690
   6.5711200  11.1412390  12.1418770   7.3639810  11.4301220  11.6900560
   6.0515550  10.7104560  11.4631250  11.3031800   7.2608020  29.4554190
  10.6969960   7.2839620  28.7149940  10.9985910   6.5291060  29.9921440
  12.7332170  10.9888310  28.0663600  13.6853920  10.9046330  28.0163840
  12.5860390  11.6530020  28.7397390  15.6241370  10.3682520  13.5655510
  15.3382880   9.9547660  12.7509690  15.4260920  11.2970230  13.4456030
   7.0888600   6.3615800  12.0061120   6.9839240   5.7468150  12.7322500
   6.9212820   5.8381690  11.2224130   7.2402920   5.0472600  27.9850350
   6.4748590   5.6157600  27.9005020   7.4218880   4.7548810  27.0918580
  10.3291330   5.4235830  12.6103110   9.7801430   5.8705130  13.2545850
  10.9510590   4.9185080  13.1340780  14.3826270   6.7777930  28.5425370
  15.1235740   7.1153690  28.0392830  13.6198950   6.9469990  27.9895140
   2.2188060   1.7831200  29.3464900   2.2593400   1.4845070  30.2550130
   3.0733560   2.1838810  29.1872420   5.9966450   4.3826750  14.5068410
   6.4182870   4.2166620  15.3499800   6.1217290   3.5726980  14.0123550
   8.5094090   3.4064360  11.7545510   9.0299750   2.6913380  11.3886660
   9.1562490   4.0450230  12.0546020  13.0571930   4.8292760  27.0780580
  13.4712950   4.9837840  27.9271000  12.1222930   4.9547980  27.2406360
   7.8187160   4.7813240  25.0476510   8.2375270   5.6245970  24.8752750
   6.8995790   4.9185280  24.8183290  10.1551060   2.5129420  26.4314350
  10.2747270   1.9170560  27.1709190  11.0145060   2.5499110  26.0115650
  12.4938960   3.0666610  25.0076860  11.9674180   3.5909230  24.4042000
  12.8370300   3.6994000  25.6386590   5.6694580  11.0866250  26.1634240
   5.1315670  11.8112310  25.8442940   5.9228540  10.6096590  25.3731580
   8.5256790  12.3217460  26.4220890   8.4515490  13.2252600  26.7293260
   7.6235630  12.0029360  26.3942960   9.0742120  11.4875970  14.0447250
   9.9692910  11.8260940  14.0666010   9.1059750  10.7655380  13.4171530
   2.7138280   6.8603020  12.2734250   3.1513150   7.4032690  12.9291830
   3.1986010   6.0349970  12.2830590   4.5246000   7.9801060  17.3856480
   4.2241540   7.8566030  18.2860390   4.4183490   7.1209650  16.9772210
  16.0536470  10.0179640  26.7513450  15.4538460  10.0772200  26.0077370
  16.1830370   9.0784620  26.8810300  17.2937920   7.7597460  12.0883160
  16.4630880   7.8274110  12.5590390  17.4709750   8.6501580  11.7850020
  16.7494380   4.5044940  14.5917360  17.5113290   5.0741590  14.6977050
  16.7648750   3.9372140  15.3625670  17.7554350   5.3595040  19.4359290
  18.1263180   4.5762360  19.0295260  18.3956280   6.0484140  19.2576590
  14.7388110   6.7431620  24.8489610  13.9247950   7.1728780  25.1115400
  15.1462310   7.3550030  24.2358660  16.8013550   4.7979310  11.7489880
  17.0762390   5.7058190  11.6209100  16.6124290   4.7341840  12.6851870
  16.6978890   2.7348300  16.7419310  16.3222490   1.9676230  16.3100600
  15.9682010   3.1171000  17.2294240  16.0878510   1.8819820  26.3758830
  15.8564600   1.6532570  25.4756780  16.3483060   2.8019370  26.3303720
  14.7964160  11.4950220  18.3757880  15.3923230  11.1734790  17.6992300
  15.0542310  11.0222040  19.1671150   2.7026730   7.9268130  28.5248510
   2.6596360   7.5561040  29.4062970   2.8337740   8.8645700  28.6650330
   6.4032760   9.4827720  24.1258230   6.1624120   9.7502280  23.2388750
   7.3435400   9.6533450  24.1809090  17.6636920  11.5022100  24.9268870
  17.1695200  11.8990970  24.2096000  17.0550210  10.8771310  25.3206150
   2.5414760  10.8730380  25.6446290   1.9475080  10.7415080  26.3836330
   2.5338600  10.0368520  25.1788390  15.3476370  12.1445520  22.2055610
  14.8879340  12.8961330  21.8313630  14.7188830  11.4251990  22.1470410
   5.7772090  10.4533760  21.3803740   6.2937110   9.8421120  20.8552000
   6.4269470  10.9562540  21.8714750   8.5167590  11.3442250  22.2072720
   8.8045400  11.0896550  21.3305730   9.0290810  10.7919610  22.7978290
   8.5839950  12.2658350  29.5740920   9.5107260  12.0302620  29.6176880
   8.5690380  13.0930350  29.0926950  16.8185010  11.8083920  16.5715170
  16.9937200  11.1221660  15.9276090  16.1206580  12.3330970  16.1791840
   4.6612660  12.1978760  14.1250480   5.3931480  11.9138040  13.5774370
   4.9206330  11.9592040  15.0149860   3.8227450   8.3143490  14.1296810
   3.1936330   8.7828590  14.6782640   3.9375280   7.4692710  14.5643000
  15.1517510  11.4928210  29.3981960  15.9442830  10.9977440  29.1907920
  15.4450660  12.1718350  30.0057570   9.4095210   4.1428170   2.1607280
   8.6337310   3.6628610   2.4505850  10.0608140   3.4633820   1.9863440
   3.4261040   4.4547980   3.0383040   2.5945920   4.1996690   3.4379550
   4.0342020   4.5258750   3.7740960   3.4062300   8.4888070   3.2341060
   3.7090340   7.5985810   3.0551280   4.1505890   9.0458290   3.0063310
   8.8504200   6.8185360   2.1677440   8.7812480   5.8775300   2.0066570
   9.6124060   6.9086770   2.7400010   5.3861060   5.2461480   4.6325910
   5.0530440   5.8730400   5.2746980   5.5627740   5.7723360   3.8527580
   4.5980160   7.2142280   6.4475090   5.2154160   7.8893360   6.1659540
   3.7373280   7.6230260   6.3562590  15.5157750   8.6781690   4.3629730
  14.8321270   9.3480800   4.3546400  16.0552040   8.8762340   3.5974590
  13.0516490  10.5225820   3.0774910  13.0643650  10.1188110   2.2097170
  12.4991710  11.2973110   2.9736340  12.4501930   5.4255660   4.4057520
  12.8670720   5.2115770   3.5710980  13.1741750   5.6828450   4.9766140
  16.3964030   3.8242880   4.4973760  15.5682660   3.8935970   4.0223890
  16.9914510   4.4097190   4.0289590   5.9620530   7.0839660   2.4686510
   5.6648820   6.4785130   1.7894290   6.9120350   7.1216970   2.3575870
  14.0506140  10.6571530   6.1309610  13.5736700  11.4643720   5.9382220
  13.3667930  10.0049860   6.2835820   5.0538960   6.8221350   9.1194310
   4.1567490   7.0461320   9.3667710   5.0791830   6.9456290   8.1705710
   3.8810180   3.6934670   7.6951680   3.7417950   4.5657470   8.0639080
   2.9991540   3.3507480   7.5499620   5.6790530   9.6356370   9.9036830
   5.6505960  10.0399320   9.0365260   5.5155500   8.7066730   9.7408430
  17.6305350  10.4183470  11.2001000  18.1065070  10.8966360  11.8790080
  18.2512510  10.3500960  10.4746500  17.0338600   7.6096320   8.3601010
  17.1601660   7.3708200   7.4418190  17.0759980   6.7780860   8.8323090
  10.8955340  11.3124320   6.9295820  11.4100010  11.2232330   7.7318250
  10.0524420  11.6584020   7.2223730   7.6124470   2.7274360   3.7921480
   7.9794600   2.2532930   4.5382820   7.4229530   3.6015930   4.1329820
   5.4023840   1.7683000   6.1105690   5.0980910   2.6474980   6.3356050
   6.3570300   1.8282790   6.1463130  14.6893610   4.9709350   2.4998930
  15.4092730   5.4664640   2.1095040  14.4875430   4.2927240   1.8552800
  10.0712410   5.0418410   8.3867930  10.0049720   4.1214080   8.1325520
   9.4417550   5.1393850   9.1012570   4.6600690   3.0669980  10.1416600
   4.3600830   3.2127160   9.2444420   5.4311930   2.5075270  10.0489990
  10.0029140   7.8638980   8.1371730  10.0173680   6.9319940   7.9190640
   9.2954240   7.9498740   8.7761500  16.2140350   4.5046320   7.4840310
  15.4888540   5.0975100   7.2869700  16.7415810   4.4969860   6.6853680
   9.4363040   9.5056550   5.2312230  10.0805260   9.7115930   5.9085650
   9.7992480   8.7444950   4.7783080  10.7095120   7.5088900   3.9489680
  11.3517350   6.8082060   4.0621850  11.2344470   8.2887340   3.7686570
  12.4832740   8.3083800   7.1525740  12.8188980   8.8950490   7.8303660
  11.5633080   8.1776510   7.3823530   8.3121320   8.3575130  10.3213800
   7.9918190   7.6384370  10.8659490   7.6379680   9.0330200  10.3949860
  15.9891360   9.8750870   1.8732580  16.1138780  10.6982040   2.3456390
  16.8556920   9.6641600   1.5256730   2.4667170  11.1528150  10.7335290
   3.2679900  11.4740200  11.1470690   1.9518990  10.7923730  11.4555200
  11.3031800   7.2608020  10.6810700  10.6969960   7.2839620   9.9406450
  10.9985910   6.5291060  11.2177950  12.7332170  10.9888310   9.2920110
  13.6853920  10.9046330   9.2420350  12.5860390  11.6530020   9.9653900
   7.2402920   5.0472600   9.2106860   6.4748590   5.6157600   9.1261530
   7.4218880   4.7548810   8.3175090  14.3826270   6.7777930   9.7681880
  15.1235740   7.1153690   9.2649340  13.6198950   6.9469990   9.2151650
   2.2188060   1.7831200  10.5721410   2.2593400   1.4845070  11.4806640
   3.0733560   2.1838810  10.4128930  13.0571930   4.8292760   8.3037090
  13.4712950   4.9837840   9.1527510  12.1222930   4.9547980   8.4662870
   7.8187160   4.7813240   6.2733020   8.2375270   5.6245970   6.1009260
   6.8995790   4.9185280   6.0439800  10.1551060   2.5129420   7.6570860
  10.2747270   1.9170560   8.3965700  11.0145060   2.5499110   7.2372160
  12.4938960   3.0666610   6.2333370  11.9674180   3.5909230   5.6298510
  12.8370300   3.6994000   6.8643100   5.6694580  11.0866250   7.3890750
   5.1315670  11.8112310   7.0699450   5.9228540  10.6096590   6.5988090
   8.5256790  12.3217460   7.6477400   8.4515490  13.2252600   7.9549770
   7.6235630  12.0029360   7.6199470  16.0536470  10.0179640   7.9769960
  15.4538460  10.0772200   7.2333880  16.1830370   9.0784620   8.1066810
  14.7388110   6.7431620   6.0746120  13.9247950   7.1728780   6.3371910
  15.1462310   7.3550030   5.4615170  16.0878510   1.8819820   7.6015340
  15.8564600   1.6532570   6.7013290  16.3483060   2.8019370   7.5560230
   2.7026730   7.9268130   9.7505020   2.6596360   7.5561040  10.6319480
   2.8337740   8.8645700   9.8906840   6.4032760   9.4827720   5.3514740
   6.1624120   9.7502280   4.4645260   7.3435400   9.6533450   5.4065600
  17.6636920  11.5022100   6.1525380  17.1695200  11.8990970   5.4352510
  17.0550210  10.8771310   6.5462660   2.5414760  10.8730380   6.8702800
   1.9475080  10.7415080   7.6092840   2.5338600  10.0368520   6.4044900
  15.3476370  12.1445520   3.4312120  14.8879340  12.8961330   3.0570140
  14.7188830  11.4251990   3.3726920   5.7772090  10.4533760   2.6060250
   6.2937110   9.8421120   2.0808510   6.4269470  10.9562540   3.0971260
   8.5167590  11.3442250   3.4329230   8.8045400  11.0896550   2.5562240
   9.0290810  10.7919610   4.0234800   8.5839950  12.2658350  10.7997430
   9.5107260  12.0302620  10.8433390   8.5690380  13.0930350  10.3183460
  15.1517510  11.4928210  10.6238470  15.9442830  10.9977440  10.4164430
  15.4450660  12.1718350  11.2314080
  91.7593910 100.0948430  60.1488300  90.0000000  90.0000000  90.0000000
